# vtk DataFile Version 2.0
Unstructured Grid Example
ASCII
DATASET UNSTRUCTURED_GRID
POINTS 749 float
-0.006575 0.016663 -0.000202 
0.494670 -0.003547 0.000375 
0.208856 0.700385 -0.000286 
0.702148 0.699052 -0.001194 
0.108893 0.698387 0.000186 
0.105378 0.998404 0.000313 
1.580099 1.003667 -0.000229 
1.585979 0.703590 -0.000194 
0.922278 0.486568 -0.000778 
0.992425 0.693963 -0.000296 
0.650375 0.497563 -0.000254 
0.665831 0.547301 0.000000 
0.905764 0.536502 -0.000529 
1.041497 0.695465 -0.000445 
-0.006703 0.016631 0.179813 
0.494479 -0.003481 0.180254 
0.209104 0.700265 0.180545 
0.702020 0.699025 0.180880 
0.109061 0.698402 0.180343 
0.105592 0.998354 0.180341 
1.580250 1.003692 0.179851 
1.586153 0.703617 0.179820 
0.922508 0.485937 0.179507 
0.992164 0.693701 0.180371 
0.650602 0.497527 0.179941 
0.665884 0.547327 0.179761 
0.906074 0.535918 0.179694 
1.041397 0.695721 0.180672 
1.582920 0.853632 0.134786 
1.582806 0.853632 0.044805 
1.582045 0.898629 0.089802 
1.583763 0.808632 0.089801 
0.306678 0.850001 0.135192 
0.306604 0.850027 0.044921 
0.306037 0.895041 0.090065 
0.307410 0.805122 0.090031 
0.118613 0.011340 -0.000068 
0.244055 0.006024 0.000048 
0.369458 0.001167 0.000253 
0.022121 0.102923 -0.000315 
0.050723 0.188786 -0.000357 
0.079049 0.274247 -0.000412 
0.106784 0.359424 -0.000547 
0.133731 0.444348 -0.000646 
0.159707 0.529271 -0.000590 
0.184718 0.614539 -0.000585 
0.158885 0.699113 0.000068 
0.106906 0.848378 0.000254 
0.212422 0.999471 0.000143 
0.319276 1.000238 -0.000137 
0.425551 1.000525 -0.000354 
0.531214 1.000558 -0.000534 
0.636493 1.000506 -0.000671 
0.741631 0.999973 -0.000717 
0.846294 0.998860 -0.000768 
0.950355 0.997663 -0.000737 
1.054101 0.997032 -0.000696 
1.158099 0.997271 -0.000509 
1.262378 0.998152 -0.000466 
1.367420 0.999769 -0.000382 
1.473329 1.001692 -0.000295 
1.582763 0.853624 -0.000233 
0.845823 0.696459 -0.000941 
0.627275 0.413129 0.000168 
0.602228 0.328899 0.000460 
0.575993 0.245105 0.000434 
0.549121 0.161829 0.000444 
0.521873 0.078978 0.000421 
0.784837 0.489793 -0.000497 
0.983221 0.592838 -0.000560 
0.948443 0.614994 -0.000263 
0.787001 0.539870 -0.000559 
0.684941 0.623698 -0.000315 
1.131280 0.695185 -0.000352 
1.221660 0.696023 -0.000201 
1.312308 0.697442 -0.000157 
1.403295 0.699374 -0.000164 
1.494480 0.701498 -0.000173 
0.118447 0.011362 0.179899 
0.243868 0.006065 0.179986 
0.369260 0.001205 0.180113 
0.022007 0.102924 0.179950 
0.050620 0.188807 0.180024 
0.078951 0.274268 0.180128 
0.106690 0.359438 0.180288 
0.133719 0.444340 0.180481 
0.159792 0.529260 0.180586 
0.184805 0.614516 0.180651 
0.159078 0.699172 0.180329 
0.107113 0.848346 0.180305 
0.212641 0.999466 0.180255 
0.319439 1.000210 0.180274 
0.425675 1.000515 0.180303 
0.531310 1.000583 0.180335 
0.636521 1.000501 0.180441 
0.741578 0.999978 0.180521 
0.846194 0.998866 0.180690 
0.950246 0.997660 0.180833 
1.054026 0.997013 0.180948 
1.158096 0.997251 0.180823 
1.262462 0.998143 0.180724 
1.367567 0.999743 0.180458 
1.473529 1.001685 0.180112 
1.582975 0.853633 0.179815 
0.845743 0.696488 0.180882 
0.627317 0.413235 0.179768 
0.602174 0.329063 0.179734 
0.575845 0.245249 0.180026 
0.548979 0.161928 0.180124 
0.521688 0.079029 0.180195 
0.785052 0.489493 0.179777 
0.983726 0.591895 0.179953 
0.948941 0.614066 0.179989 
0.787347 0.539530 0.180017 
0.684969 0.623475 0.180114 
1.131272 0.695251 0.180675 
1.221704 0.696050 0.180513 
1.312430 0.697481 0.180373 
1.403458 0.699415 0.180207 
1.494683 0.701512 0.180004 
-0.006637 0.016703 0.089777 
0.494548 -0.003520 0.090318 
0.208969 0.700261 0.090087 
0.702024 0.699024 0.089934 
0.109097 0.698334 0.090243 
0.105488 0.998349 0.090322 
1.580152 1.003689 0.089783 
1.586029 0.703597 0.089816 
0.922109 0.486586 0.089374 
0.992236 0.694012 0.090098 
0.650986 0.497233 0.089877 
0.665628 0.547358 0.089842 
0.906243 0.536226 0.089569 
1.041421 0.695344 0.090082 
1.583572 0.821806 0.121620 
1.583504 0.821802 0.057972 
1.582259 0.885453 0.057967 
1.582361 0.885449 0.121622 
0.306149 0.881855 0.058147 
0.307123 0.818233 0.058146 
0.307180 0.818239 0.121943 
0.306207 0.881844 0.121977 
1.490341 0.851692 0.134984 
1.398161 0.849723 0.135148 
1.306441 0.847989 0.135297 
1.215165 0.846726 0.135418 
1.124183 0.845997 0.135460 
1.033463 0.845814 0.135448 
0.943096 0.846333 0.135355 
0.852918 0.847606 0.135380 
0.762470 0.848932 0.135374 
0.671902 0.849540 0.135276 
0.581119 0.849616 0.135146 
0.490150 0.849744 0.135112 
0.398651 0.849954 0.135140 
1.489416 0.896781 0.089894 
1.397330 0.894870 0.090011 
1.305747 0.893188 0.090100 
1.214677 0.892014 0.090153 
1.123830 0.891286 0.090151 
1.033255 0.891175 0.090109 
0.942914 0.891764 0.090039 
0.852597 0.892936 0.089963 
0.762187 0.894078 0.089907 
0.671588 0.894761 0.089884 
0.580695 0.894961 0.089882 
0.489480 0.895046 0.089922 
0.397902 0.895097 0.089972 
1.490242 0.851682 0.044810 
1.398074 0.849715 0.044876 
1.306388 0.847982 0.044898 
1.215153 0.846719 0.044876 
1.124197 0.846014 0.044835 
1.033498 0.845804 0.044766 
0.943141 0.846327 0.044720 
0.852943 0.847604 0.044544 
0.762509 0.848938 0.044450 
0.671943 0.849566 0.044510 
0.581114 0.849632 0.044625 
0.490103 0.849743 0.044724 
0.398593 0.849963 0.044806 
1.491108 0.806634 0.089895 
1.398879 0.804593 0.090019 
1.307057 0.802797 0.090104 
1.215655 0.801488 0.090149 
1.124609 0.800831 0.090145 
1.033679 0.800531 0.090111 
0.943448 0.800724 0.090039 
0.853149 0.802255 0.089957 
0.763142 0.803855 0.089930 
0.672611 0.804410 0.089863 
0.581964 0.804237 0.089893 
0.490986 0.804395 0.089906 
0.399501 0.804798 0.089961 
1.581013 0.955495 0.130130 
1.585019 0.751803 0.130130 
1.584945 0.751796 0.049486 
1.580971 0.954924 0.050263 
1.584175 0.788101 0.019819 
1.584323 0.788113 0.159783 
1.581644 0.917990 0.018917 
1.581782 0.919161 0.159783 
1.583443 0.822644 0.032296 
1.583576 0.822649 0.147293 
1.582271 0.883867 0.031294 
1.582387 0.884608 0.147288 
1.581774 0.916140 0.120981 
1.584186 0.791030 0.121068 
1.584114 0.791025 0.058532 
1.581680 0.915141 0.055903 
1.584728 0.762812 0.089807 
1.581166 0.943515 0.089050 
0.351105 0.832733 0.117844 
1.538891 0.835440 0.117606 
0.717604 0.826703 0.112627 
0.808052 0.825736 0.112667 
0.898227 0.824195 0.112689 
0.626963 0.826953 0.112528 
1.169893 0.823743 0.112791 
0.444947 0.827218 0.112524 
0.988376 0.823339 0.112711 
0.536140 0.826974 0.112522 
1.078950 0.823281 0.112778 
1.261053 0.824720 0.112742 
1.352589 0.826261 0.112632 
1.444563 0.828159 0.112504 
0.340359 0.817142 0.102173 
1.550229 0.820051 0.101964 
0.350340 0.867229 0.117850 
1.538249 0.869980 0.117616 
0.807459 0.870868 0.112655 
0.716904 0.871798 0.112580 
0.897703 0.869666 0.112683 
0.626254 0.872235 0.112537 
0.988153 0.868768 0.112749 
0.535318 0.872360 0.112497 
0.444007 0.872464 0.112553 
1.169427 0.868995 0.112823 
1.078632 0.868542 0.112800 
1.260434 0.869923 0.112755 
1.351902 0.871433 0.112658 
1.443793 0.873260 0.112517 
0.339138 0.882887 0.102198 
1.549002 0.885832 0.101968 
0.306840 0.850090 0.090203 
0.307082 0.832352 0.097451 
0.306914 0.842716 0.072152 
0.306736 0.857089 0.108220 
0.306552 0.868112 0.083307 
1.538843 0.835437 0.062080 
0.351252 0.822227 0.072702 
0.717658 0.826765 0.067210 
0.808061 0.825723 0.067203 
0.898274 0.824207 0.067316 
0.626954 0.827003 0.067238 
1.078964 0.823293 0.067469 
0.536128 0.826982 0.067272 
0.988407 0.823320 0.067436 
1.169888 0.823743 0.067507 
0.444908 0.827215 0.067342 
1.261033 0.824710 0.067513 
1.352558 0.826252 0.067486 
1.444518 0.828154 0.067409 
1.550210 0.820043 0.077705 
0.339950 0.837878 0.057058 
0.350300 0.867246 0.062184 
1.537953 0.880483 0.072607 
0.716912 0.871807 0.067214 
0.807476 0.870869 0.067218 
0.897726 0.869663 0.067317 
0.626268 0.872224 0.067228 
1.169426 0.868980 0.067499 
0.988166 0.868766 0.067402 
1.078640 0.868547 0.067459 
0.535309 0.872360 0.067295 
0.443944 0.872454 0.067363 
1.260445 0.869935 0.067493 
1.351868 0.871431 0.067457 
1.443748 0.873257 0.067392 
0.339151 0.882896 0.077864 
1.549307 0.865078 0.056954 
0.428639 0.594406 -0.000354 
0.353930 0.363102 -0.000153 
0.388135 0.793052 -0.000360 
0.534734 0.715501 -0.000549 
0.548100 0.554002 -0.000201 
1.026960 0.844496 -0.000566 
0.331375 0.681141 -0.000371 
0.448008 0.471018 -0.000165 
0.304304 0.496086 -0.000423 
0.249607 0.194408 -0.000096 
0.621147 0.835398 -0.000760 
0.273644 0.774834 -0.000189 
0.438602 0.698413 -0.000415 
1.162427 0.843430 -0.000432 
0.405992 0.208388 0.000130 
1.351053 0.845445 -0.000276 
0.514021 0.838551 -0.000535 
0.503695 0.634531 -0.000362 
0.485045 0.339692 0.000170 
0.599037 0.632928 -0.000421 
0.324494 0.588601 -0.000411 
0.241518 0.365417 -0.000374 
0.766926 0.831252 -0.000959 
0.555432 0.455914 0.000031 
1.089161 0.791892 -0.000457 
0.729196 0.520959 -0.000356 
0.897568 0.903403 -0.000753 
0.930264 0.775409 -0.000625 
0.842507 0.515843 -0.000521 
0.324940 0.887224 -0.000208 
0.272688 0.639648 -0.000490 
0.473175 0.526978 -0.000215 
0.383576 0.511024 -0.000323 
0.404284 0.886486 -0.000348 
0.604184 0.538059 -0.000076 
1.012574 0.764032 -0.000474 
0.630377 0.746058 -0.000710 
0.987390 0.642298 -0.000445 
0.172887 0.115624 -0.000193 
0.196806 0.797331 0.000018 
1.262956 0.788113 -0.000270 
1.450759 0.793059 -0.000218 
0.183521 0.289644 -0.000320 
0.343359 0.117294 0.000069 
0.393494 0.647884 -0.000391 
0.941064 0.560949 -0.000624 
0.221018 0.453924 -0.000533 
0.483547 0.757458 -0.000476 
0.273919 0.708875 -0.000286 
0.372290 0.440052 -0.000212 
0.205885 0.895155 0.000096 
0.295549 0.294689 -0.000148 
1.090488 0.908284 -0.000575 
1.256299 0.889500 -0.000405 
0.271260 0.565136 -0.000467 
1.441363 0.904907 -0.000267 
0.574356 0.908709 -0.000610 
0.459022 0.145686 0.000329 
0.382281 0.720744 -0.000375 
0.488411 0.245415 0.000271 
0.437372 0.065605 0.000296 
0.299190 0.416154 -0.000361 
0.691317 0.903643 -0.000791 
0.627529 0.585226 -0.000090 
0.599404 0.483406 -0.000018 
0.548584 0.379390 0.000214 
0.559567 0.779548 -0.000642 
0.489886 0.576955 -0.000287 
[...]
POINT_DATA 749
SCALARS u float 1
LOOKUP_TABLE default
0.057961
0.020749
0.028694
0.008522
0.029247
0.018178
0.065477
0.046832
0.049493
0.031356
0.025582
0.029436
0.047517
0.031213
0.058017
0.021132
0.029520
0.007794
0.029791
0.018894
0.065009
0.046308
0.051602
0.032551
0.026305
0.029583
0.049630
0.031164
0.056502
0.056861
0.059269
0.053835
0.021616
0.021369
0.019533
0.023976
0.042109
0.027383
0.018342
0.050772
0.044678
0.040223
0.037611
0.035962
0.034364
0.032182
0.028891
0.022968
0.017171
0.016171
0.013493
0.008908
0.003705
0.004597
0.012790
0.023347
0.034395
0.044053
0.052754
0.059206
0.063425
0.056993
0.017976
0.028980
0.026824
0.021700
0.016451
0.015481
0.038191
0.023358
0.032774
0.042676
0.021059
0.037057
0.039903
0.041893
0.043313
0.045086
0.042437
0.027905
0.018980
0.050836
0.044718
0.040165
0.037441
0.035889
0.034601
0.032454
0.029512
0.023649
0.017891
0.016709
0.013875
0.009125
0.003387
0.004470
0.013040
0.023717
0.034709
0.044124
0.052519
0.058739
0.062773
0.056327
0.018084
0.028976
0.026367
0.020986
0.015956
0.015540
0.039353
0.026522
0.035543
0.044200
0.021281
0.037040
0.039771
0.041494
0.042783
0.044435
0.058154
0.021024
0.029033
0.007274
0.029933
0.018572
0.065321
0.046679
0.049161
0.031725
0.027784
0.028757
0.048949
0.031582
0.054434
0.054648
0.058594
0.058269
0.019896
0.023045
0.023235
0.020090
0.054637
0.052180
0.048935
0.044672
0.039520
0.033307
0.025319
0.015759
0.006921
0.002317
0.008350
0.014381
0.018752
0.057643
0.054859
0.051074
0.045984
0.040287
0.033442
0.025205
0.016152
0.007422
0.001003
0.006881
0.012187
0.016326
0.054955
0.052461
0.049100
0.044696
0.039435
0.033192
0.025190
0.015713
0.006929
0.002693
0.008401
0.014252
0.018570
0.052150
0.049863
0.047041
0.043311
0.038381
0.033031
0.025313
0.015679
0.005240
0.004299
0.011255
0.017172
0.021506
0.062577
0.049868
0.050096
0.062702
0.052517
0.052061
0.060546
0.060120
0.054840
0.054424
0.058545
0.058185
0.060144
0.052498
0.052720
0.060436
0.050783
0.062085
0.021618
0.054683
0.002737
0.010348
0.020339
0.006594
0.041466
0.018340
0.029334
0.013044
0.036131
0.046020
0.049562
0.052299
0.022697
0.053987
0.019145
0.056755
0.011791
0.003839
0.021093
0.004148
0.029383
0.010282
0.015278
0.042689
0.036784
0.047867
0.051740
0.054801
0.018746
0.057914
0.022134
0.022918
0.022372
0.021800
0.021202
0.054836
0.022093
0.002637
0.010375
0.020191
0.006577
0.036062
0.013023
0.029267
0.041472
0.018222
0.046081
0.049664
0.052446
0.054044
0.021372
0.019015
0.057702
0.003902
0.011766
0.021031
0.004289
0.042693
0.029339
0.036743
0.010276
0.015079
0.047818
0.051847
0.054950
0.018787
0.056941
0.029473
0.025435
0.021357
0.019131
0.028474
0.032577
0.028504
0.030086
0.031956
0.018870
0.006275
0.024950
0.024499
0.041807
0.009810
0.050692
0.013137
0.025825
0.024955
0.023036
0.031690
0.028656
0.007619
0.029239
0.036275
0.032902
0.020131
0.024452
0.044642
0.019069
0.031148
0.029953
0.031142
0.016639
0.027744
0.031858
0.009960
0.025621
0.029371
0.024359
0.044787
0.050554
0.029073
0.007583
0.028449
0.036641
0.032629
0.019088
0.028182
0.029616
0.020529
0.020961
0.037852
0.048398
0.032897
0.056971
0.007411
0.006740
0.025163
0.017019
0.009737
0.029518
0.002853
0.027088
0.028297
0.028131
0.013295
0.028771
0.004083
0.027283
0.032829
0.019377
0.027059
0.026423
0.015500
0.019131
0.028876
0.026729
0.039757
0.046502
0.010908
0.026211
0.029810
0.060787
0.015732
0.025549
0.023156
0.053866
0.030917
0.012314
0.027404
0.007723
0.022708
0.027321
0.028982
0.050384
0.013148
0.028837
0.017464
0.023843
0.025547
0.030283
0.046375
0.029599
0.045223
0.021839
0.021573
0.030406
0.025938
0.016661
0.032560
0.017292
0.018364
0.021770
0.026111
0.034932
0.036871
0.033623
0.039769
0.026743
0.032058
0.019625
0.009528
0.029642
0.025277
0.021940
0.019085
0.028681
0.033017
0.028809
0.030031
0.031832
0.019206
0.005871
0.025444
0.024694
0.041845
0.009247
0.050219
0.013263
0.025778
0.024413
0.023229
0.031712
0.028144
0.007554
0.029384
0.036602
0.033777
0.020441
0.024832
0.046474
0.019534
0.031400
0.030024
0.031117
0.016948
0.028221
0.032188
0.010012
0.027149
0.029736
0.025046
0.044556
0.049961
0.028992
0.007934
0.028645
0.039397
0.032689
0.019199
0.028601
0.029348
0.021248
0.021012
0.038010
0.048178
0.032915
0.056333
0.007149
0.006322
0.025456
0.016485
0.010186
0.029423
0.002297
0.026972
0.028534
0.027890
0.013226
0.028952
0.003706
0.026787
0.033153
0.019304
0.027128
0.026998
0.015423
0.019768
0.029099
0.027238
0.039651
0.046063
0.011052
0.026367
0.029902
0.060157
0.015845
0.025952
0.023127
0.053473
0.030965
0.012584
0.027334
0.007353
0.022636
0.027830
0.028841
0.049835
0.012496
0.029188
0.017768
0.023282
0.026595
0.030462
0.048324
0.030204
0.045276
0.022321
0.022166
0.030402
0.026198
0.017155
0.032319
0.017267
0.018932
0.022079
0.025894
0.034716
0.036949
0.033508
0.039923
0.027441
0.032045
0.020372
0.009544
0.024173
0.014640
0.028080
0.018466
0.016849
0.029181
0.029099
0.017034
0.031359
0.045962
0.045445
0.020717
0.039697
0.038373
0.037560
0.031099
0.030084
0.008965
0.008883
0.025478
0.025630
0.017920
0.020941
0.016388
0.023891
0.045107
0.035892
0.035066
0.038663
0.042439
0.044295
0.040897
0.035538
0.045500
0.045732
0.035373
0.017201
0.015447
0.011626
0.006278
0.001164
0.008153
0.018075
0.029084
0.039921
0.048813
0.056127
0.061370
0.064126
0.017915
0.017956
0.064801
0.034578
0.022656
0.018030
0.048044
0.047688
0.038965
0.033052
0.037331
0.042082
0.035597
0.031443
0.053291
0.053762
0.031148
0.029289
0.029612
0.029210
0.029344
0.020859
0.021152
0.026242
0.026503
0.023482
0.036467
0.030087
0.030028
0.028563
0.031269
0.029965
0.027531
0.027422
0.026970
0.028682
0.025235
0.024269
0.024140
0.030342
0.030428
0.030009
0.029966
0.029205
0.026084
0.031287
0.029130
0.025542
0.029337
0.023261
0.031137
0.022587
0.026962
0.042394
0.014263
0.013991
0.018437
0.018519
0.023971
0.026968
0.026876
0.021737
0.021682
0.016891
0.032425
0.044146
0.030758
0.024434
0.028848
0.027762
0.028796
0.024343
0.027090
0.026901
0.021130
0.023802
0.025890
0.019616
0.019396
0.025966
0.028226
0.029684
0.029706
0.029056
0.028930
0.032283
0.033264
0.032259
0.033492
0.031046
0.031108
0.031274
0.017292
0.022913
0.025291
0.036483
0.028333
0.028449
0.039827
0.027994
0.024939
0.028105
0.021830
0.024103
0.026848
0.008836
0.008647
0.004002
0.009916
0.010350
0.010087
0.030063
0.031123
0.024611
0.020960
0.028035
0.039888
0.025201
0.023651
0.021548
0.026874
0.025708
0.027750
0.048875
0.047435
0.045984
0.045814
0.027968
0.041844
0.032779
0.020321
0.018637
0.017953
0.044316
0.024613
0.025594
0.024900
0.042400
0.021309
0.021646
0.023106
0.023182
0.021610
0.020212
0.019081
0.018459
0.022761
0.023045
0.023284
0.024327
0.025404
0.022669
0.023377
0.023560
0.023772
0.022259
0.024922
0.023618
0.021978
0.024765
0.023377
0.023247
0.026058
0.024562
0.024542
0.023064
0.021614
0.027262
0.028840
0.025616
0.025621
0.017822
0.052945
