# vtk DataFile Version 2.0
Unstructured Grid Example
ASCII
DATASET UNSTRUCTURED_GRID
POINTS 749 float
-0.009675 0.024520 -0.000297 
0.492157 -0.005219 0.000551 
0.213031 0.700566 -0.000421 
0.703161 0.698605 -0.001757 
0.113086 0.697626 0.000273 
0.107914 0.997651 0.000460 
1.570715 1.005397 -0.000337 
1.579367 0.705282 -0.000285 
0.925710 0.480234 -0.001145 
0.988853 0.691116 -0.000435 
0.653920 0.496414 -0.000373 
0.669928 0.546028 0.000000 
0.908481 0.530138 -0.000779 
1.037487 0.693326 -0.000655 
-0.009863 0.024473 0.179725 
0.491876 -0.005123 0.180373 
0.213397 0.700390 0.180802 
0.702972 0.698565 0.181294 
0.113334 0.697648 0.180505 
0.108229 0.997577 0.180502 
1.570937 1.005433 0.179781 
1.579624 0.705322 0.179736 
0.926048 0.479306 0.179274 
0.988468 0.690732 0.180546 
0.654254 0.496360 0.179913 
0.670005 0.546067 0.179649 
0.908939 0.529278 0.179549 
1.037340 0.693703 0.180989 
1.574866 0.855345 0.134685 
1.574699 0.855344 0.044713 
1.573579 0.900341 0.089708 
1.576107 0.810344 0.089707 
0.309827 0.850002 0.135283 
0.309718 0.850039 0.044883 
0.308883 0.895060 0.090095 
0.310903 0.805180 0.090046 
0.115602 0.016687 -0.000100 
0.241252 0.008865 0.000071 
0.366845 0.001718 0.000373 
0.020763 0.110195 -0.000464 
0.051064 0.195286 -0.000525 
0.080958 0.279786 -0.000607 
0.109983 0.363868 -0.000805 
0.137848 0.447577 -0.000950 
0.164283 0.531285 -0.000869 
0.189300 0.615500 -0.000860 
0.163075 0.698694 0.000100 
0.110163 0.847613 0.000374 
0.214911 0.999221 0.000211 
0.321630 1.000350 -0.000201 
0.427494 1.000773 -0.000522 
0.532460 1.000821 -0.000786 
0.636860 1.000744 -0.000987 
0.741053 0.999960 -0.001056 
0.844546 0.998322 -0.001130 
0.947155 0.996561 -0.001085 
1.049299 0.995633 -0.001024 
1.151813 0.995984 -0.000748 
1.254743 0.997280 -0.000685 
1.358794 0.999660 -0.000562 
1.464121 1.002490 -0.000435 
1.574635 0.855333 -0.000343 
0.843853 0.694790 -0.001385 
0.631154 0.411461 0.000247 
0.605524 0.326808 0.000677 
0.578146 0.242797 0.000638 
0.549829 0.159548 0.000653 
0.520961 0.076925 0.000620 
0.787623 0.484981 -0.000731 
0.983560 0.589462 -0.000823 
0.947709 0.610276 -0.000387 
0.790976 0.535094 -0.000823 
0.687944 0.623084 -0.000463 
1.126383 0.692915 -0.000517 
1.216157 0.694148 -0.000296 
1.306323 0.696235 -0.000232 
1.396990 0.699079 -0.000242 
1.487948 0.702204 -0.000254 
0.115357 0.016719 0.179851 
0.240977 0.008925 0.179979 
0.366554 0.001774 0.180166 
0.020595 0.110197 0.179926 
0.050913 0.195318 0.180035 
0.080813 0.279817 0.180189 
0.109844 0.363888 0.180424 
0.137830 0.447566 0.180708 
0.164409 0.531268 0.180862 
0.189428 0.615466 0.180957 
0.163358 0.698781 0.180485 
0.110467 0.847566 0.180449 
0.215233 0.999215 0.180376 
0.321868 1.000309 0.180403 
0.427678 1.000757 0.180446 
0.532602 1.000859 0.180493 
0.636901 1.000738 0.180649 
0.740975 0.999968 0.180767 
0.844400 0.998332 0.181016 
0.946994 0.996556 0.181226 
1.049188 0.995605 0.181395 
1.151810 0.995955 0.181211 
1.254866 0.997267 0.181065 
1.359010 0.999622 0.180674 
1.464416 1.002480 0.180165 
1.574947 0.855346 0.179728 
0.843735 0.694831 0.181298 
0.631216 0.411617 0.179659 
0.605445 0.327050 0.179608 
0.577927 0.243009 0.180038 
0.549620 0.159693 0.180182 
0.520687 0.076999 0.180287 
0.787940 0.484539 0.179672 
0.984304 0.588073 0.179931 
0.948442 0.608910 0.179984 
0.791485 0.534593 0.180025 
0.687985 0.622756 0.180168 
1.126371 0.693011 0.180994 
1.216221 0.694187 0.180755 
1.306504 0.696293 0.180549 
1.397230 0.699139 0.180305 
1.488247 0.702225 0.180006 
-0.009766 0.024578 0.089673 
0.491977 -0.005180 0.090468 
0.213199 0.700385 0.090128 
0.702978 0.698563 0.089902 
0.113387 0.697548 0.090358 
0.108076 0.997571 0.090473 
1.570793 1.005428 0.089681 
1.579442 0.705293 0.089729 
0.925461 0.480260 0.089079 
0.988575 0.691189 0.090144 
0.654818 0.495929 0.089819 
0.669629 0.546112 0.089768 
0.909187 0.529731 0.089366 
1.037376 0.693149 0.090121 
1.575826 0.823515 0.121526 
1.575725 0.823509 0.057874 
1.573894 0.887167 0.057866 
1.574044 0.887160 0.121528 
0.309049 0.881872 0.058131 
0.310481 0.818257 0.058130 
0.310566 0.818267 0.122001 
0.309134 0.881856 0.122052 
1.482418 0.852489 0.134977 
1.390558 0.849593 0.135218 
1.299374 0.847040 0.135438 
1.208843 0.845183 0.135615 
1.118746 0.844110 0.135677 
1.029033 0.843840 0.135660 
0.939841 0.844604 0.135522 
0.850926 0.846478 0.135560 
0.761615 0.848428 0.135551 
0.672126 0.849323 0.135407 
0.582321 0.849435 0.135214 
0.492242 0.849623 0.135165 
0.401383 0.849932 0.135206 
1.481058 0.897621 0.089844 
1.389336 0.894809 0.090016 
1.298353 0.892333 0.090148 
1.208125 0.890605 0.090225 
1.118226 0.889535 0.090222 
1.028728 0.889372 0.090160 
0.939572 0.890238 0.090057 
0.850454 0.891963 0.089946 
0.761198 0.893644 0.089864 
0.671664 0.894649 0.089829 
0.581696 0.894942 0.089827 
0.491256 0.895068 0.089885 
0.400281 0.895143 0.089958 
1.482273 0.852475 0.044720 
1.390430 0.849580 0.044817 
1.299296 0.847030 0.044849 
1.208826 0.845171 0.044818 
1.118766 0.844134 0.044757 
1.029085 0.843826 0.044656 
0.939907 0.844594 0.044589 
0.850963 0.846474 0.044330 
0.761672 0.848437 0.044190 
0.672185 0.849361 0.044279 
0.582313 0.849459 0.044448 
0.492173 0.849622 0.044594 
0.401298 0.849945 0.044715 
1.483547 0.807405 0.089846 
1.391615 0.804401 0.090028 
1.300281 0.801759 0.090153 
1.209564 0.799832 0.090219 
1.119373 0.798865 0.090213 
1.029351 0.798423 0.090163 
0.940359 0.798708 0.090057 
0.851266 0.800961 0.089937 
0.762603 0.803316 0.089897 
0.673169 0.804132 0.089799 
0.583563 0.803877 0.089842 
0.493472 0.804110 0.089862 
0.402634 0.804703 0.089942 
1.572060 0.957229 0.130043 
1.577955 0.753510 0.130043 
1.577846 0.753499 0.049392 
1.571998 0.956651 0.050165 
1.576714 0.789802 0.019719 
1.576930 0.789820 0.159695 
1.572989 0.919703 0.018813 
1.573192 0.920884 0.159695 
1.575637 0.824352 0.032192 
1.575831 0.824360 0.147203 
1.573912 0.885572 0.031190 
1.574082 0.886319 0.147195 
1.573180 0.917861 0.120887 
1.576729 0.792740 0.120976 
1.576624 0.792733 0.058436 
1.573042 0.916858 0.055803 
1.577527 0.764518 0.089716 
1.572285 0.945244 0.088953 
0.354255 0.832724 0.117888 
1.531024 0.836709 0.117538 
0.717485 0.826327 0.112686 
0.806796 0.824905 0.112746 
0.895707 0.822637 0.112778 
0.627889 0.826695 0.112542 
1.164117 0.821971 0.112928 
0.447616 0.827085 0.112536 
0.984580 0.821376 0.112811 
0.538025 0.826725 0.112532 
1.074076 0.821291 0.112909 
1.254476 0.823410 0.112855 
1.345390 0.825677 0.112694 
1.436948 0.828470 0.112505 
0.343667 0.817150 0.102196 
1.542483 0.821431 0.101888 
0.353130 0.867218 0.117897 
1.530079 0.871268 0.117553 
0.805924 0.870099 0.112729 
0.716454 0.871468 0.112617 
0.894936 0.868330 0.112770 
0.626845 0.872110 0.112555 
0.984251 0.867008 0.112867 
0.536815 0.872294 0.112496 
0.446234 0.872447 0.112579 
1.163431 0.867342 0.112976 
1.073608 0.866676 0.112942 
1.253565 0.868709 0.112875 
1.344378 0.870931 0.112732 
1.435815 0.873619 0.112525 
0.341870 0.882893 0.102233 
1.540679 0.887226 0.101893 
0.310065 0.850150 0.090227 
0.310421 0.832424 0.097483 
0.310174 0.842767 0.072152 
0.309912 0.857149 0.108280 
0.309642 0.868165 0.083324 
1.530953 0.836704 0.061999 
0.354472 0.822217 0.072679 
0.717563 0.826418 0.067073 
0.806810 0.824886 0.067062 
0.895776 0.822654 0.067229 
0.627875 0.826769 0.067114 
1.074098 0.821309 0.067454 
0.538007 0.826737 0.067164 
0.984624 0.821349 0.067406 
1.164109 0.821971 0.067511 
0.447560 0.827080 0.067267 
1.254447 0.823395 0.067520 
1.345344 0.825664 0.067479 
1.436881 0.828463 0.067367 
1.542455 0.821419 0.077624 
0.343064 0.837880 0.057027 
0.353071 0.867243 0.062153 
1.529643 0.881772 0.072540 
0.716467 0.871481 0.067080 
0.805949 0.870101 0.067086 
0.894970 0.868325 0.067231 
0.626865 0.872094 0.067100 
1.163429 0.867320 0.067498 
0.984270 0.867005 0.067356 
1.073620 0.866683 0.067439 
0.536802 0.872295 0.067198 
0.446141 0.872432 0.067298 
1.253582 0.868725 0.067490 
1.344329 0.870927 0.067436 
1.435748 0.873614 0.067341 
0.341889 0.882906 0.077859 
1.541127 0.866470 0.056873 
0.432911 0.593992 -0.000521 
0.357595 0.363653 -0.000226 
0.391242 0.792974 -0.000530 
0.537430 0.714840 -0.000808 
0.552118 0.552967 -0.000296 
1.022655 0.842514 -0.000833 
0.335525 0.681203 -0.000546 
0.452351 0.470419 -0.000243 
0.308892 0.496861 -0.000623 
0.250532 0.196997 -0.000142 
0.621956 0.835168 -0.001118 
0.277279 0.774867 -0.000277 
0.442148 0.698052 -0.000611 
1.156615 0.841613 -0.000635 
0.407420 0.208367 0.000191 
1.343691 0.844843 -0.000406 
0.515911 0.838379 -0.000787 
0.507374 0.633756 -0.000533 
0.488528 0.338650 0.000251 
0.602211 0.631853 -0.000619 
0.329098 0.588911 -0.000605 
0.245092 0.367571 -0.000550 
0.766086 0.830685 -0.001412 
0.559489 0.454611 0.000046 
1.084305 0.789814 -0.000672 
0.732805 0.517806 -0.000524 
0.894920 0.902192 -0.001109 
0.927345 0.773386 -0.000920 
0.845701 0.510180 -0.000767 
0.327717 0.887275 -0.000306 
0.277203 0.640056 -0.000721 
0.477477 0.526244 -0.000317 
0.388112 0.510956 -0.000476 
0.406703 0.886537 -0.000512 
0.608067 0.536932 -0.000112 
1.008548 0.761729 -0.000697 
0.631676 0.745503 -0.001045 
0.985627 0.639014 -0.000655 
0.172083 0.119827 -0.000284 
0.200348 0.797086 0.000027 
1.256589 0.786681 -0.000398 
1.443399 0.793380 -0.000321 
0.185935 0.293122 -0.000471 
0.342971 0.118329 0.000101 
0.397632 0.647696 -0.000576 
0.942618 0.555848 -0.000918 
0.225363 0.455840 -0.000784 
0.486290 0.757058 -0.000701 
0.278021 0.709038 -0.000421 
0.376602 0.440211 -0.000312 
0.208862 0.894865 0.000142 
0.298185 0.296231 -0.000218 
1.085264 0.906532 -0.000845 
1.249353 0.888285 -0.000596 
0.275985 0.565920 -0.000687 
1.433070 0.905275 -0.000393 
0.575397 0.908728 -0.000898 
0.459365 0.144779 0.000484 
0.385941 0.720611 -0.000552 
0.490581 0.244221 0.000399 
0.436099 0.064992 0.000436 
0.303340 0.417276 -0.000531 
0.691159 0.903548 -0.001164 
0.631299 0.584056 -0.000133 
0.603304 0.482065 -0.000027 
0.552395 0.377883 0.000315 
0.561429 0.779108 -0.000944 
0.494001 0.576164 -0.000423 
[...]
POINT_DATA 749
SCALARS u float 1
LOOKUP_TABLE default
0.057961
0.020749
0.028694
0.008522
0.029247
0.018178
0.065477
0.046832
0.049493
0.031356
0.025582
0.029436
0.047517
0.031213
0.058017
0.021132
0.029520
0.007794
0.029791
0.018894
0.065009
0.046308
0.051602
0.032551
0.026305
0.029583
0.049630
0.031164
0.056502
0.056861
0.059269
0.053835
0.021616
0.021369
0.019533
0.023976
0.042109
0.027383
0.018342
0.050772
0.044678
0.040223
0.037611
0.035962
0.034364
0.032182
0.028891
0.022968
0.017171
0.016171
0.013493
0.008908
0.003705
0.004597
0.012790
0.023347
0.034395
0.044053
0.052754
0.059206
0.063425
0.056993
0.017976
0.028980
0.026824
0.021700
0.016451
0.015481
0.038191
0.023358
0.032774
0.042676
0.021059
0.037057
0.039903
0.041893
0.043313
0.045086
0.042437
0.027905
0.018980
0.050836
0.044718
0.040165
0.037441
0.035889
0.034601
0.032454
0.029512
0.023649
0.017891
0.016709
0.013875
0.009125
0.003387
0.004470
0.013040
0.023717
0.034709
0.044124
0.052519
0.058739
0.062773
0.056327
0.018084
0.028976
0.026367
0.020986
0.015956
0.015540
0.039353
0.026522
0.035543
0.044200
0.021281
0.037040
0.039771
0.041494
0.042783
0.044435
0.058154
0.021024
0.029033
0.007274
0.029933
0.018572
0.065321
0.046679
0.049161
0.031725
0.027784
0.028757
0.048949
0.031582
0.054434
0.054648
0.058594
0.058269
0.019896
0.023045
0.023235
0.020090
0.054637
0.052180
0.048935
0.044672
0.039520
0.033307
0.025319
0.015759
0.006921
0.002317
0.008350
0.014381
0.018752
0.057643
0.054859
0.051074
0.045984
0.040287
0.033442
0.025205
0.016152
0.007422
0.001003
0.006881
0.012187
0.016326
0.054955
0.052461
0.049100
0.044696
0.039435
0.033192
0.025190
0.015713
0.006929
0.002693
0.008401
0.014252
0.018570
0.052150
0.049863
0.047041
0.043311
0.038381
0.033031
0.025313
0.015679
0.005240
0.004299
0.011255
0.017172
0.021506
0.062577
0.049868
0.050096
0.062702
0.052517
0.052061
0.060546
0.060120
0.054840
0.054424
0.058545
0.058185
0.060144
0.052498
0.052720
0.060436
0.050783
0.062085
0.021618
0.054683
0.002737
0.010348
0.020339
0.006594
0.041466
0.018340
0.029334
0.013044
0.036131
0.046020
0.049562
0.052299
0.022697
0.053987
0.019145
0.056755
0.011791
0.003839
0.021093
0.004148
0.029383
0.010282
0.015278
0.042689
0.036784
0.047867
0.051740
0.054801
0.018746
0.057914
0.022134
0.022918
0.022372
0.021800
0.021202
0.054836
0.022093
0.002637
0.010375
0.020191
0.006577
0.036062
0.013023
0.029267
0.041472
0.018222
0.046081
0.049664
0.052446
0.054044
0.021372
0.019015
0.057702
0.003902
0.011766
0.021031
0.004289
0.042693
0.029339
0.036743
0.010276
0.015079
0.047818
0.051847
0.054950
0.018787
0.056941
0.029473
0.025435
0.021357
0.019131
0.028474
0.032577
0.028504
0.030086
0.031956
0.018870
0.006275
0.024950
0.024499
0.041807
0.009810
0.050692
0.013137
0.025825
0.024955
0.023036
0.031690
0.028656
0.007619
0.029239
0.036275
0.032902
0.020131
0.024452
0.044642
0.019069
0.031148
0.029953
0.031142
0.016639
0.027744
0.031858
0.009960
0.025621
0.029371
0.024359
0.044787
0.050554
0.029073
0.007583
0.028449
0.036641
0.032629
0.019088
0.028182
0.029616
0.020529
0.020961
0.037852
0.048398
0.032897
0.056971
0.007411
0.006740
0.025163
0.017019
0.009737
0.029518
0.002853
0.027088
0.028297
0.028131
0.013295
0.028771
0.004083
0.027283
0.032829
0.019377
0.027059
0.026423
0.015500
0.019131
0.028876
0.026729
0.039757
0.046502
0.010908
0.026211
0.029810
0.060787
0.015732
0.025549
0.023156
0.053866
0.030917
0.012314
0.027404
0.007723
0.022708
0.027321
0.028982
0.050384
0.013148
0.028837
0.017464
0.023843
0.025547
0.030283
0.046375
0.029599
0.045223
0.021839
0.021573
0.030406
0.025938
0.016661
0.032560
0.017292
0.018364
0.021770
0.026111
0.034932
0.036871
0.033623
0.039769
0.026743
0.032058
0.019625
0.009528
0.029642
0.025277
0.021940
0.019085
0.028681
0.033017
0.028809
0.030031
0.031832
0.019206
0.005871
0.025444
0.024694
0.041845
0.009247
0.050219
0.013263
0.025778
0.024413
0.023229
0.031712
0.028144
0.007554
0.029384
0.036602
0.033777
0.020441
0.024832
0.046474
0.019534
0.031400
0.030024
0.031117
0.016948
0.028221
0.032188
0.010012
0.027149
0.029736
0.025046
0.044556
0.049961
0.028992
0.007934
0.028645
0.039397
0.032689
0.019199
0.028601
0.029348
0.021248
0.021012
0.038010
0.048178
0.032915
0.056333
0.007149
0.006322
0.025456
0.016485
0.010186
0.029423
0.002297
0.026972
0.028534
0.027890
0.013226
0.028952
0.003706
0.026787
0.033153
0.019304
0.027128
0.026998
0.015423
0.019768
0.029099
0.027238
0.039651
0.046063
0.011052
0.026367
0.029902
0.060157
0.015845
0.025952
0.023127
0.053473
0.030965
0.012584
0.027334
0.007353
0.022636
0.027830
0.028841
0.049835
0.012496
0.029188
0.017768
0.023282
0.026595
0.030462
0.048324
0.030204
0.045276
0.022321
0.022166
0.030402
0.026198
0.017155
0.032319
0.017267
0.018932
0.022079
0.025894
0.034716
0.036949
0.033508
0.039923
0.027441
0.032045
0.020372
0.009544
0.024173
0.014640
0.028080
0.018466
0.016849
0.029181
0.029099
0.017034
0.031359
0.045962
0.045445
0.020717
0.039697
0.038373
0.037560
0.031099
0.030084
0.008965
0.008883
0.025478
0.025630
0.017920
0.020941
0.016388
0.023891
0.045107
0.035892
0.035066
0.038663
0.042439
0.044295
0.040897
0.035538
0.045500
0.045732
0.035373
0.017201
0.015447
0.011626
0.006278
0.001164
0.008153
0.018075
0.029084
0.039921
0.048813
0.056127
0.061370
0.064126
0.017915
0.017956
0.064801
0.034578
0.022656
0.018030
0.048044
0.047688
0.038965
0.033052
0.037331
0.042082
0.035597
0.031443
0.053291
0.053762
0.031148
0.029289
0.029612
0.029210
0.029344
0.020859
0.021152
0.026242
0.026503
0.023482
0.036467
0.030087
0.030028
0.028563
0.031269
0.029965
0.027531
0.027422
0.026970
0.028682
0.025235
0.024269
0.024140
0.030342
0.030428
0.030009
0.029966
0.029205
0.026084
0.031287
0.029130
0.025542
0.029337
0.023261
0.031137
0.022587
0.026962
0.042394
0.014263
0.013991
0.018437
0.018519
0.023971
0.026968
0.026876
0.021737
0.021682
0.016891
0.032425
0.044146
0.030758
0.024434
0.028848
0.027762
0.028796
0.024343
0.027090
0.026901
0.021130
0.023802
0.025890
0.019616
0.019396
0.025966
0.028226
0.029684
0.029706
0.029056
0.028930
0.032283
0.033264
0.032259
0.033492
0.031046
0.031108
0.031274
0.017292
0.022913
0.025291
0.036483
0.028333
0.028449
0.039827
0.027994
0.024939
0.028105
0.021830
0.024103
0.026848
0.008836
0.008647
0.004002
0.009916
0.010350
0.010087
0.030063
0.031123
0.024611
0.020960
0.028035
0.039888
0.025201
0.023651
0.021548
0.026874
0.025708
0.027750
0.048875
0.047435
0.045984
0.045814
0.027968
0.041844
0.032779
0.020321
0.018637
0.017953
0.044316
0.024613
0.025594
0.024900
0.042400
0.021309
0.021646
0.023106
0.023182
0.021610
0.020212
0.019081
0.018459
0.022761
0.023045
0.023284
0.024327
0.025404
0.022669
0.023377
0.023560
0.023772
0.022259
0.024922
0.023618
0.021978
0.024765
0.023377
0.023247
0.026058
0.024562
0.024542
0.023064
0.021614
0.027262
0.028840
0.025616
0.025621
0.017822
0.052945
