# vtk DataFile Version 2.0
Unstructured Grid Example
ASCII
DATASET UNSTRUCTURED_GRID
POINTS 749 float
0.009211 -0.023345 0.000283 
0.507467 0.004969 -0.000525 
0.187593 0.699461 0.000401 
0.696991 0.701328 0.001673 
0.087542 0.702260 -0.000260 
0.092466 1.002237 -0.000438 
1.627881 0.994862 0.000321 
1.619644 0.694971 0.000271 
0.904803 0.518818 0.001091 
1.010613 0.708458 0.000414 
0.632325 0.503414 0.000355 
0.644971 0.553782 -0.000000 
0.891925 0.568910 0.000741 
1.061913 0.706354 0.000623 
0.009390 -0.023300 0.180262 
0.507734 0.004877 0.179645 
0.187246 0.699629 0.179236 
0.697171 0.701366 0.178768 
0.087305 0.702239 0.179519 
0.092165 1.002306 0.179522 
1.627670 0.994828 0.180208 
1.619399 0.694933 0.180252 
0.904482 0.519702 0.180691 
1.010979 0.708824 0.179480 
0.632007 0.503465 0.180083 
0.644897 0.553744 0.180334 
0.891490 0.569729 0.180429 
1.062053 0.705995 0.179058 
1.623929 0.844911 0.135300 
1.624088 0.844912 0.045273 
1.625154 0.889915 0.090278 
1.622748 0.799912 0.090279 
0.290644 0.849998 0.134731 
0.290748 0.849963 0.045111 
0.291543 0.894943 0.089909 
0.289619 0.804829 0.089956 
0.133948 -0.015887 0.000096 
0.258328 -0.008440 -0.000068 
0.382764 -0.001635 -0.000355 
0.029034 0.065893 0.000442 
0.048987 0.155687 0.000500 
0.069328 0.246043 0.000577 
0.090496 0.336797 0.000766 
0.112768 0.427906 0.000905 
0.136401 0.519016 0.000827 
0.161385 0.609643 0.000819 
0.137552 0.701243 -0.000095 
0.090324 0.852273 -0.000356 
0.199747 1.000742 -0.000201 
0.307294 0.999666 0.000191 
0.415654 0.999264 0.000497 
0.524869 0.999219 0.000748 
0.634624 0.999292 0.000939 
0.744575 1.000038 0.001005 
0.855193 1.001598 0.001076 
0.966652 1.003274 0.001033 
1.078554 1.004157 0.000975 
1.190104 1.003823 0.000712 
1.301258 1.002590 0.000653 
1.411344 1.000324 0.000535 
1.520215 0.997630 0.000414 
1.624149 0.844923 0.000326 
0.855852 0.704960 0.001318 
0.607522 0.421623 -0.000236 
0.585445 0.339546 -0.000644 
0.565034 0.256858 -0.000608 
0.545515 0.173444 -0.000622 
0.526522 0.089435 -0.000590 
0.770651 0.514299 0.000696 
0.981490 0.610033 0.000784 
0.952181 0.639018 0.000368 
0.766761 0.564191 0.000783 
0.669648 0.626824 0.000441 
1.156218 0.706746 0.000493 
1.249687 0.705571 0.000282 
1.342781 0.703584 0.000220 
1.435400 0.700877 0.000230 
1.527741 0.697902 0.000242 
0.134181 -0.015917 0.180142 
0.258591 -0.008497 0.180020 
0.383042 -0.001689 0.179842 
0.029194 0.065891 0.180070 
0.049131 0.155656 0.179966 
0.069465 0.246013 0.179820 
0.090628 0.336778 0.179597 
0.112785 0.427917 0.179325 
0.136281 0.519032 0.179180 
0.161264 0.609676 0.179088 
0.137282 0.701161 0.179539 
0.090035 0.852317 0.179572 
0.199440 1.000748 0.179642 
0.307067 0.999706 0.179616 
0.415479 0.999279 0.179576 
0.524734 0.999183 0.179531 
0.634585 0.999298 0.179382 
0.744650 1.000031 0.179270 
0.855332 1.001588 0.179033 
0.966805 1.003279 0.178833 
1.078659 1.004185 0.178672 
1.190107 1.003851 0.178847 
1.301141 1.002602 0.178986 
1.411138 1.000359 0.179358 
1.519935 0.997639 0.179843 
1.623852 0.844910 0.180259 
0.855964 0.704921 0.178764 
0.607463 0.421474 0.180325 
0.585521 0.339315 0.180373 
0.565242 0.256656 0.179964 
0.545714 0.173306 0.179827 
0.526782 0.089364 0.179727 
0.770349 0.514720 0.180312 
0.980783 0.611355 0.180066 
0.951483 0.640319 0.180015 
0.766277 0.564668 0.179976 
0.669609 0.627137 0.179840 
1.156229 0.706654 0.179054 
1.249625 0.705534 0.179281 
1.342610 0.703529 0.179478 
1.435172 0.700820 0.179710 
1.527457 0.697882 0.179995 
0.009298 -0.023400 0.090312 
0.507639 0.004932 0.089554 
0.187434 0.699634 0.089878 
0.697164 0.701368 0.090093 
0.087255 0.702335 0.089659 
0.092311 1.002313 0.089549 
1.627807 0.994832 0.090304 
1.619573 0.694961 0.090258 
0.905040 0.518793 0.090877 
1.010877 0.708389 0.089863 
0.631469 0.503876 0.090172 
0.645256 0.553702 0.090221 
0.891254 0.569297 0.090604 
1.062019 0.706523 0.089885 
1.623015 0.813101 0.122100 
1.623111 0.813107 0.058472 
1.624854 0.876729 0.058479 
1.624712 0.876735 0.122097 
0.291385 0.881770 0.058227 
0.290021 0.818107 0.058228 
0.289941 0.818098 0.121647 
0.291304 0.881785 0.121599 
1.530683 0.847630 0.135022 
1.436876 0.850388 0.134793 
1.342426 0.852818 0.134583 
1.247354 0.854586 0.134415 
1.151869 0.855608 0.134355 
1.056018 0.855865 0.134372 
0.959672 0.855137 0.134503 
0.863062 0.853353 0.134467 
0.766829 0.851497 0.134476 
0.670765 0.850645 0.134613 
0.575002 0.850538 0.134796 
0.479500 0.850359 0.134843 
0.384740 0.850064 0.134804 
1.531977 0.892504 0.090148 
1.438040 0.895182 0.089985 
1.343398 0.897539 0.089859 
1.248037 0.899184 0.089786 
1.152364 0.900203 0.089789 
1.056309 0.900358 0.089848 
0.959928 0.899534 0.089946 
0.863511 0.897892 0.090052 
0.767226 0.896291 0.090130 
0.671205 0.895334 0.090163 
0.575597 0.895055 0.090165 
0.480439 0.894935 0.090110 
0.385789 0.894863 0.090040 
1.530821 0.847644 0.045267 
1.436998 0.850400 0.045174 
1.342500 0.852827 0.045143 
1.247371 0.854597 0.045173 
1.151850 0.855585 0.045231 
1.055969 0.855878 0.045327 
0.959609 0.855146 0.045392 
0.863027 0.853357 0.045638 
0.766774 0.851488 0.045771 
0.670708 0.850608 0.045686 
0.575009 0.850515 0.045526 
0.479566 0.850360 0.045386 
0.384821 0.850052 0.045271 
1.529608 0.802710 0.090147 
1.435869 0.805570 0.089973 
1.341562 0.808086 0.089854 
1.246667 0.809921 0.089792 
1.151272 0.810841 0.089797 
1.055716 0.811261 0.089845 
0.959179 0.810991 0.089945 
0.862738 0.808846 0.090060 
0.765888 0.806604 0.090098 
0.669772 0.805827 0.090192 
0.573819 0.806069 0.090150 
0.478328 0.805847 0.090131 
0.383549 0.805283 0.090055 
1.626601 0.946664 0.130576 
1.620988 0.743112 0.130576 
1.621092 0.743122 0.049962 
1.626660 0.946129 0.050766 
1.622170 0.779440 0.020326 
1.621964 0.779423 0.160231 
1.625716 0.909264 0.019447 
1.625523 0.910386 0.160231 
1.623195 0.813945 0.032825 
1.623010 0.813937 0.147751 
1.624837 0.875185 0.031822 
1.624675 0.875896 0.147759 
1.625535 0.907377 0.121461 
1.622156 0.782323 0.121537 
1.622255 0.782330 0.059023 
1.625666 0.906399 0.056412 
1.621396 0.754124 0.090271 
1.626386 0.934710 0.089545 
0.335064 0.832774 0.117618 
1.578952 0.828981 0.117952 
0.718211 0.828617 0.112323 
0.814445 0.829971 0.112266 
0.911059 0.832130 0.112235 
0.622250 0.828266 0.112460 
1.199304 0.832764 0.112092 
0.431354 0.827895 0.112466 
1.007709 0.833330 0.112204 
0.526543 0.828237 0.112469 
1.103766 0.833411 0.112110 
1.294540 0.831394 0.112162 
1.389247 0.829235 0.112315 
1.483342 0.826576 0.112495 
0.323517 0.817102 0.102057 
1.589670 0.813025 0.102351 
0.336135 0.867280 0.117610 
1.579851 0.863425 0.117938 
0.815275 0.874786 0.112282 
0.719193 0.873483 0.112389 
0.911793 0.876470 0.112243 
0.623243 0.872871 0.112448 
1.008023 0.877729 0.112151 
0.527695 0.872696 0.112504 
0.432671 0.872550 0.112425 
1.199958 0.877411 0.112047 
1.104212 0.878044 0.112079 
1.295407 0.876110 0.112143 
1.390210 0.873994 0.112279 
1.484420 0.871435 0.112476 
0.325227 0.882858 0.102022 
1.591388 0.878733 0.102345 
0.290418 0.849783 0.090076 
0.290079 0.831988 0.097286 
0.290314 0.842456 0.072155 
0.290564 0.856788 0.107916 
0.290821 0.867843 0.083220 
1.579020 0.828986 0.062489 
0.334857 0.822282 0.072818 
0.718137 0.828530 0.067906 
0.814431 0.829989 0.067917 
0.910994 0.832114 0.067758 
0.622263 0.828196 0.067868 
1.103746 0.833394 0.067543 
0.526560 0.828226 0.067820 
1.007667 0.833356 0.067589 
1.199312 0.832764 0.067490 
0.431408 0.827900 0.067722 
1.294567 0.831408 0.067481 
1.389291 0.829248 0.067520 
1.483405 0.826583 0.067627 
1.589697 0.813037 0.078114 
0.324090 0.837870 0.057218 
0.336191 0.867256 0.062342 
1.580266 0.873921 0.072950 
0.719181 0.873470 0.067900 
0.815251 0.874784 0.067895 
0.911761 0.876475 0.067757 
0.623224 0.872886 0.067880 
1.199959 0.877432 0.067502 
1.008005 0.877732 0.067637 
1.104201 0.878038 0.067558 
0.527707 0.872696 0.067787 
0.432759 0.872565 0.067692 
1.295391 0.876094 0.067509 
1.390257 0.873998 0.067561 
1.484484 0.871439 0.067651 
0.325209 0.882845 0.077890 
1.590961 0.857988 0.057365 
0.406886 0.596518 0.000496 
0.335268 0.360292 0.000215 
0.372315 0.793451 0.000504 
0.521004 0.718863 0.000769 
0.527644 0.559276 0.000282 
1.048886 0.854589 0.000793 
0.310243 0.680824 0.000520 
0.425895 0.474069 0.000231 
0.280943 0.492141 0.000593 
0.244894 0.181223 0.000135 
0.617025 0.836569 0.001064 
0.255135 0.774667 0.000264 
0.420541 0.700250 0.000582 
1.192022 0.852681 0.000605 
0.398720 0.208494 -0.000182 
1.388541 0.848512 0.000386 
0.504397 0.839424 0.000749 
0.484961 0.638478 0.000507 
0.467307 0.344998 -0.000239 
0.582874 0.638403 0.000589 
0.301052 0.587021 0.000576 
0.223321 0.354450 0.000523 
0.771208 0.834138 0.001344 
0.534773 0.462549 -0.000044 
1.113889 0.802475 0.000640 
0.710820 0.537014 0.000499 
0.911053 0.909573 0.001056 
0.945125 0.785713 0.000876 
0.826244 0.544677 0.000730 
0.310800 0.886965 0.000291 
0.249697 0.637571 0.000686 
0.451270 0.530720 0.000301 
0.360482 0.511367 0.000453 
0.391967 0.886228 0.000488 
0.584411 0.543795 0.000107 
1.033070 0.775758 0.000663 
0.623765 0.748886 0.000995 
0.996369 0.659023 0.000623 
0.176978 0.094220 0.000270 
0.178773 0.798579 -0.000026 
1.295376 0.795401 0.000379 
1.488236 0.791423 0.000306 
0.171226 0.271932 0.000449 
0.345334 0.112027 -0.000096 
0.372425 0.648841 0.000548 
0.933151 0.586920 0.000874 
0.198894 0.444170 0.000746 
0.469576 0.759493 0.000667 
0.253033 0.708043 0.000400 
0.350333 0.439243 0.000297 
0.190725 0.896637 -0.000135 
0.282127 0.286834 0.000208 
1.117089 0.917200 0.000805 
1.291665 0.895685 0.000568 
0.247203 0.561139 0.000654 
1.483594 0.903035 0.000374 
0.569056 0.908611 0.000855 
0.457279 0.150307 -0.000461 
0.363642 0.721424 0.000526 
0.477362 0.251496 -0.000380 
0.443850 0.068727 -0.000415 
0.278062 0.410439 0.000506 
0.692120 0.904125 0.001108 
0.608332 0.591185 0.000127 
0.579545 0.490231 0.000026 
0.529176 0.387063 -0.000300 
0.550083 0.781791 0.000899 
0.468929 0.580983 0.000402 
0.696092 0.792887 0.001305 
0.408951 0.390227 0.000075 
0.132271 0.178642 0.000430 
[...]
POINT_DATA 749
SCALARS u float 1
LOOKUP_TABLE default
0.057961
0.020749
0.028694
0.008522
0.029247
0.018178
0.065477
0.046832
0.049493
0.031356
0.025582
0.029436
0.047517
0.031213
0.058017
0.021132
0.029520
0.007794
0.029791
0.018894
0.065009
0.046308
0.051602
0.032551
0.026305
0.029583
0.049630
0.031164
0.056502
0.056861
0.059269
0.053835
0.021616
0.021369
0.019533
0.023976
0.042109
0.027383
0.018342
0.050772
0.044678
0.040223
0.037611
0.035962
0.034364
0.032182
0.028891
0.022968
0.017171
0.016171
0.013493
0.008908
0.003705
0.004597
0.012790
0.023347
0.034395
0.044053
0.052754
0.059206
0.063425
0.056993
0.017976
0.028980
0.026824
0.021700
0.016451
0.015481
0.038191
0.023358
0.032774
0.042676
0.021059
0.037057
0.039903
0.041893
0.043313
0.045086
0.042437
0.027905
0.018980
0.050836
0.044718
0.040165
0.037441
0.035889
0.034601
0.032454
0.029512
0.023649
0.017891
0.016709
0.013875
0.009125
0.003387
0.004470
0.013040
0.023717
0.034709
0.044124
0.052519
0.058739
0.062773
0.056327
0.018084
0.028976
0.026367
0.020986
0.015956
0.015540
0.039353
0.026522
0.035543
0.044200
0.021281
0.037040
0.039771
0.041494
0.042783
0.044435
0.058154
0.021024
0.029033
0.007274
0.029933
0.018572
0.065321
0.046679
0.049161
0.031725
0.027784
0.028757
0.048949
0.031582
0.054434
0.054648
0.058594
0.058269
0.019896
0.023045
0.023235
0.020090
0.054637
0.052180
0.048935
0.044672
0.039520
0.033307
0.025319
0.015759
0.006921
0.002317
0.008350
0.014381
0.018752
0.057643
0.054859
0.051074
0.045984
0.040287
0.033442
0.025205
0.016152
0.007422
0.001003
0.006881
0.012187
0.016326
0.054955
0.052461
0.049100
0.044696
0.039435
0.033192
0.025190
0.015713
0.006929
0.002693
0.008401
0.014252
0.018570
0.052150
0.049863
0.047041
0.043311
0.038381
0.033031
0.025313
0.015679
0.005240
0.004299
0.011255
0.017172
0.021506
0.062577
0.049868
0.050096
0.062702
0.052517
0.052061
0.060546
0.060120
0.054840
0.054424
0.058545
0.058185
0.060144
0.052498
0.052720
0.060436
0.050783
0.062085
0.021618
0.054683
0.002737
0.010348
0.020339
0.006594
0.041466
0.018340
0.029334
0.013044
0.036131
0.046020
0.049562
0.052299
0.022697
0.053987
0.019145
0.056755
0.011791
0.003839
0.021093
0.004148
0.029383
0.010282
0.015278
0.042689
0.036784
0.047867
0.051740
0.054801
0.018746
0.057914
0.022134
0.022918
0.022372
0.021800
0.021202
0.054836
0.022093
0.002637
0.010375
0.020191
0.006577
0.036062
0.013023
0.029267
0.041472
0.018222
0.046081
0.049664
0.052446
0.054044
0.021372
0.019015
0.057702
0.003902
0.011766
0.021031
0.004289
0.042693
0.029339
0.036743
0.010276
0.015079
0.047818
0.051847
0.054950
0.018787
0.056941
0.029473
0.025435
0.021357
0.019131
0.028474
0.032577
0.028504
0.030086
0.031956
0.018870
0.006275
0.024950
0.024499
0.041807
0.009810
0.050692
0.013137
0.025825
0.024955
0.023036
0.031690
0.028656
0.007619
0.029239
0.036275
0.032902
0.020131
0.024452
0.044642
0.019069
0.031148
0.029953
0.031142
0.016639
0.027744
0.031858
0.009960
0.025621
0.029371
0.024359
0.044787
0.050554
0.029073
0.007583
0.028449
0.036641
0.032629
0.019088
0.028182
0.029616
0.020529
0.020961
0.037852
0.048398
0.032897
0.056971
0.007411
0.006740
0.025163
0.017019
0.009737
0.029518
0.002853
0.027088
0.028297
0.028131
0.013295
0.028771
0.004083
0.027283
0.032829
0.019377
0.027059
0.026423
0.015500
0.019131
0.028876
0.026729
0.039757
0.046502
0.010908
0.026211
0.029810
0.060787
0.015732
0.025549
0.023156
0.053866
0.030917
0.012314
0.027404
0.007723
0.022708
0.027321
0.028982
0.050384
0.013148
0.028837
0.017464
0.023843
0.025547
0.030283
0.046375
0.029599
0.045223
0.021839
0.021573
0.030406
0.025938
0.016661
0.032560
0.017292
0.018364
0.021770
0.026111
0.034932
0.036871
0.033623
0.039769
0.026743
0.032058
0.019625
0.009528
0.029642
0.025277
0.021940
0.019085
0.028681
0.033017
0.028809
0.030031
0.031832
0.019206
0.005871
0.025444
0.024694
0.041845
0.009247
0.050219
0.013263
0.025778
0.024413
0.023229
0.031712
0.028144
0.007554
0.029384
0.036602
0.033777
0.020441
0.024832
0.046474
0.019534
0.031400
0.030024
0.031117
0.016948
0.028221
0.032188
0.010012
0.027149
0.029736
0.025046
0.044556
0.049961
0.028992
0.007934
0.028645
0.039397
0.032689
0.019199
0.028601
0.029348
0.021248
0.021012
0.038010
0.048178
0.032915
0.056333
0.007149
0.006322
0.025456
0.016485
0.010186
0.029423
0.002297
0.026972
0.028534
0.027890
0.013226
0.028952
0.003706
0.026787
0.033153
0.019304
0.027128
0.026998
0.015423
0.019768
0.029099
0.027238
0.039651
0.046063
0.011052
0.026367
0.029902
0.060157
0.015845
0.025952
0.023127
0.053473
0.030965
0.012584
0.027334
0.007353
0.022636
0.027830
0.028841
0.049835
0.012496
0.029188
0.017768
0.023282
0.026595
0.030462
0.048324
0.030204
0.045276
0.022321
0.022166
0.030402
0.026198
0.017155
0.032319
0.017267
0.018932
0.022079
0.025894
0.034716
0.036949
0.033508
0.039923
0.027441
0.032045
0.020372
0.009544
0.024173
0.014640
0.028080
0.018466
0.016849
0.029181
0.029099
0.017034
0.031359
0.045962
0.045445
0.020717
0.039697
0.038373
0.037560
0.031099
0.030084
0.008965
0.008883
0.025478
0.025630
0.017920
0.020941
0.016388
0.023891
0.045107
0.035892
0.035066
0.038663
0.042439
0.044295
0.040897
0.035538
0.045500
0.045732
0.035373
0.017201
0.015447
0.011626
0.006278
0.001164
0.008153
0.018075
0.029084
0.039921
0.048813
0.056127
0.061370
0.064126
0.017915
0.017956
0.064801
0.034578
0.022656
0.018030
0.048044
0.047688
0.038965
0.033052
0.037331
0.042082
0.035597
0.031443
0.053291
0.053762
0.031148
0.029289
0.029612
0.029210
0.029344
0.020859
0.021152
0.026242
0.026503
0.023482
0.036467
0.030087
0.030028
0.028563
0.031269
0.029965
0.027531
0.027422
0.026970
0.028682
0.025235
0.024269
0.024140
0.030342
0.030428
0.030009
0.029966
0.029205
0.026084
0.031287
0.029130
0.025542
0.029337
0.023261
0.031137
0.022587
0.026962
0.042394
0.014263
0.013991
0.018437
0.018519
0.023971
0.026968
0.026876
0.021737
0.021682
0.016891
0.032425
0.044146
0.030758
0.024434
0.028848
0.027762
0.028796
0.024343
0.027090
0.026901
0.021130
0.023802
0.025890
0.019616
0.019396
0.025966
0.028226
0.029684
0.029706
0.029056
0.028930
0.032283
0.033264
0.032259
0.033492
0.031046
0.031108
0.031274
0.017292
0.022913
0.025291
0.036483
0.028333
0.028449
0.039827
0.027994
0.024939
0.028105
0.021830
0.024103
0.026848
0.008836
0.008647
0.004002
0.009916
0.010350
0.010087
0.030063
0.031123
0.024611
0.020960
0.028035
0.039888
0.025201
0.023651
0.021548
0.026874
0.025708
0.027750
0.048875
0.047435
0.045984
0.045814
0.027968
0.041844
0.032779
0.020321
0.018637
0.017953
0.044316
0.024613
0.025594
0.024900
0.042400
0.021309
0.021646
0.023106
0.023182
0.021610
0.020212
0.019081
0.018459
0.022761
0.023045
0.023284
0.024327
0.025404
0.022669
0.023377
0.023560
0.023772
0.022259
0.024922
0.023618
0.021978
0.024765
0.023377
0.023247
0.026058
0.024562
0.024542
0.023064
0.021614
0.027262
0.028840
0.025616
0.025621
0.017822
0.052945
