# vtk DataFile Version 2.0
Unstructured Grid Example
ASCII
DATASET UNSTRUCTURED_GRID
POINTS 749 float
0.007340 -0.018602 0.000226 
0.505950 0.003959 -0.000418 
0.190114 0.699571 0.000319 
0.697602 0.701058 0.001333 
0.090073 0.701801 -0.000207 
0.093996 1.001782 -0.000349 
1.622217 0.995906 0.000256 
1.615653 0.695993 0.000216 
0.906875 0.514995 0.000869 
1.008457 0.706740 0.000330 
0.634465 0.502721 0.000283 
0.647444 0.553014 -0.000000 
0.893566 0.565068 0.000591 
1.059492 0.705063 0.000497 
0.007482 -0.018566 0.180209 
0.506163 0.003886 0.179717 
0.189837 0.699704 0.179391 
0.697746 0.701089 0.179018 
0.089884 0.701784 0.179617 
0.093757 1.001838 0.179619 
1.622048 0.995879 0.180166 
1.615458 0.695963 0.180201 
0.906619 0.515699 0.180551 
1.008748 0.707031 0.179586 
0.634211 0.502761 0.180066 
0.647385 0.552983 0.180267 
0.893219 0.565721 0.180342 
1.059604 0.704777 0.179250 
1.619067 0.845945 0.135239 
1.619194 0.845946 0.045218 
1.620044 0.890948 0.090221 
1.618126 0.800946 0.090222 
0.292545 0.849999 0.134785 
0.292627 0.849970 0.045088 
0.293261 0.894954 0.089928 
0.291728 0.804864 0.089965 
0.132130 -0.012659 0.000076 
0.256636 -0.006725 -0.000054 
0.381187 -0.001303 -0.000283 
0.028214 0.070283 0.000352 
0.049193 0.159611 0.000399 
0.070480 0.249386 0.000460 
0.092427 0.339479 0.000611 
0.115253 0.429855 0.000721 
0.139164 0.520232 0.000659 
0.164151 0.610224 0.000653 
0.140081 0.700991 -0.000076 
0.092290 0.851811 -0.000284 
0.201250 1.000591 -0.000160 
0.308714 0.999734 0.000152 
0.416827 0.999414 0.000396 
0.525621 0.999377 0.000596 
0.634845 0.999435 0.000749 
0.744226 1.000030 0.000801 
0.854138 1.001273 0.000857 
0.964720 1.002609 0.000823 
1.075655 1.003313 0.000777 
1.186309 1.003046 0.000568 
1.296649 1.002064 0.000520 
1.406137 1.000258 0.000427 
1.514657 0.998111 0.000330 
1.619242 0.845954 0.000260 
0.854663 0.703953 0.001051 
0.609863 0.420616 -0.000188 
0.587435 0.338284 -0.000513 
0.566333 0.255464 -0.000484 
0.545943 0.172067 -0.000496 
0.525971 0.088195 -0.000470 
0.772333 0.511394 0.000554 
0.981696 0.607995 0.000625 
0.951738 0.636170 0.000294 
0.769161 0.561308 0.000624 
0.671461 0.626453 0.000351 
1.153262 0.705375 0.000393 
1.246364 0.704439 0.000225 
1.339169 0.702856 0.000176 
1.431594 0.700699 0.000183 
1.523798 0.698328 0.000193 
0.132316 -0.012684 0.180113 
0.256845 -0.006771 0.180016 
0.381408 -0.001346 0.179874 
0.028342 0.070281 0.180056 
0.049308 0.159586 0.179973 
0.070590 0.249363 0.179857 
0.092532 0.339464 0.179679 
0.115267 0.429864 0.179463 
0.139069 0.520245 0.179346 
0.164055 0.610250 0.179274 
0.139866 0.700925 0.179632 
0.092059 0.851846 0.179659 
0.201005 1.000596 0.179715 
0.308533 0.999765 0.179694 
0.416688 0.999425 0.179662 
0.525514 0.999349 0.179626 
0.634814 0.999440 0.179508 
0.744285 1.000025 0.179418 
0.854248 1.001266 0.179229 
0.964842 1.002613 0.179070 
1.075739 1.003335 0.178942 
1.186312 1.003068 0.179081 
1.296555 1.002073 0.179192 
1.405973 1.000286 0.179489 
1.514434 0.998118 0.179875 
1.619006 0.845944 0.180207 
0.854753 0.703921 0.179015 
0.609816 0.420497 0.180259 
0.587495 0.338100 0.180297 
0.566499 0.255304 0.179971 
0.546101 0.171957 0.179862 
0.526178 0.088139 0.179782 
0.772092 0.511729 0.180249 
0.981132 0.609048 0.180053 
0.951182 0.637207 0.180012 
0.768775 0.561688 0.179981 
0.671430 0.626703 0.179873 
1.153271 0.705302 0.179246 
1.246315 0.704410 0.179427 
1.339032 0.702812 0.179584 
1.431412 0.700653 0.179769 
1.523572 0.698312 0.179996 
0.007409 -0.018646 0.090248 
0.506087 0.003930 0.089645 
0.189987 0.699708 0.089903 
0.697741 0.701090 0.090074 
0.089845 0.701860 0.089728 
0.093873 1.001843 0.089641 
1.622158 0.995882 0.090242 
1.615596 0.695985 0.090206 
0.907064 0.514975 0.090699 
1.008667 0.706685 0.089891 
0.633783 0.503089 0.090137 
0.647671 0.552950 0.090176 
0.893031 0.565377 0.090481 
1.059577 0.705197 0.089908 
1.618339 0.814133 0.122043 
1.618416 0.814138 0.058413 
1.619805 0.877764 0.058418 
1.619691 0.877768 0.122041 
0.293135 0.881780 0.058218 
0.292049 0.818122 0.058218 
0.291984 0.818115 0.121682 
0.293070 0.881792 0.121644 
1.525900 0.848112 0.135017 
1.432286 0.850309 0.134835 
1.338160 0.852245 0.134668 
1.243538 0.853654 0.134534 
1.148587 0.854468 0.134486 
1.053344 0.854673 0.134499 
0.957707 0.854094 0.134604 
0.861859 0.852672 0.134575 
0.766312 0.851193 0.134582 
0.670900 0.850514 0.134691 
0.575727 0.850428 0.134838 
0.480762 0.850286 0.134875 
0.386389 0.850051 0.134844 
1.526932 0.893011 0.090118 
1.433214 0.895145 0.089988 
1.338934 0.897023 0.089888 
1.244082 0.898334 0.089829 
1.148981 0.899146 0.089832 
1.053576 0.899270 0.089879 
0.957911 0.898613 0.089957 
0.862217 0.897304 0.090041 
0.766628 0.896029 0.090104 
0.671250 0.895266 0.090130 
0.576201 0.895044 0.090131 
0.481510 0.894948 0.090087 
0.387225 0.894891 0.090032 
1.526010 0.848123 0.045213 
1.432384 0.850319 0.045139 
1.338219 0.852253 0.045114 
1.243551 0.853663 0.045138 
1.148571 0.854450 0.045184 
1.053305 0.854684 0.045261 
0.957657 0.854101 0.045312 
0.861831 0.852675 0.045509 
0.766269 0.851186 0.045614 
0.670854 0.850485 0.045547 
0.575733 0.850410 0.045419 
0.480815 0.850287 0.045308 
0.386454 0.850042 0.045216 
1.525044 0.803176 0.090117 
1.431484 0.805454 0.089979 
1.337472 0.807459 0.089884 
1.242991 0.808921 0.089834 
1.148111 0.809654 0.089838 
1.053103 0.809989 0.089876 
0.957314 0.809773 0.089957 
0.861601 0.808064 0.090048 
0.765562 0.806278 0.090078 
0.670108 0.805659 0.090153 
0.574784 0.805852 0.090120 
0.479829 0.805675 0.090105 
0.385440 0.805226 0.090044 
1.621196 0.947710 0.130523 
1.616724 0.744143 0.130523 
1.616807 0.744151 0.049905 
1.621243 0.947171 0.050706 
1.617666 0.780467 0.020266 
1.617501 0.780453 0.160178 
1.620492 0.910299 0.019384 
1.620338 0.911427 0.160178 
1.618483 0.814976 0.032762 
1.618335 0.814970 0.147697 
1.619791 0.876214 0.031759 
1.619662 0.876929 0.147703 
1.620347 0.908415 0.121404 
1.617654 0.783355 0.121482 
1.617734 0.783361 0.058964 
1.620451 0.907436 0.056351 
1.617049 0.755154 0.090216 
1.621026 0.935754 0.089486 
0.336966 0.832769 0.117645 
1.574203 0.829747 0.117911 
0.718139 0.828390 0.112359 
0.813687 0.829469 0.112314 
0.909537 0.831190 0.112289 
0.622808 0.828110 0.112468 
1.195818 0.831695 0.112175 
0.432966 0.827815 0.112473 
1.005418 0.832146 0.112264 
0.527681 0.828088 0.112475 
1.100824 0.832210 0.112190 
1.290570 0.830603 0.112230 
1.384901 0.828883 0.112353 
1.478745 0.826764 0.112496 
0.325513 0.817106 0.102071 
1.584994 0.813858 0.102305 
0.337819 0.867274 0.117638 
1.574920 0.864202 0.117900 
0.814348 0.874321 0.112327 
0.718922 0.873283 0.112411 
0.910123 0.875664 0.112295 
0.623600 0.872796 0.112459 
1.005667 0.876666 0.112222 
0.528599 0.872656 0.112503 
0.434015 0.872540 0.112440 
1.196338 0.876413 0.112139 
1.101179 0.876918 0.112165 
1.291261 0.875376 0.112216 
1.385669 0.873691 0.112324 
1.479604 0.871651 0.112481 
0.326876 0.882861 0.102043 
1.586363 0.879574 0.102301 
0.292364 0.849819 0.090091 
0.292095 0.832031 0.097305 
0.292282 0.842487 0.072155 
0.292481 0.856823 0.107952 
0.292686 0.867874 0.083231 
1.574257 0.829751 0.062440 
0.336801 0.822275 0.072804 
0.718080 0.828321 0.067824 
0.813676 0.829483 0.067832 
0.909486 0.831176 0.067705 
0.622819 0.828054 0.067793 
1.100808 0.832197 0.067535 
0.527694 0.828079 0.067755 
1.005384 0.832167 0.067571 
1.195824 0.831695 0.067492 
0.433009 0.827818 0.067677 
1.290592 0.830614 0.067485 
1.384936 0.828893 0.067516 
1.478795 0.826770 0.067601 
1.585015 0.813867 0.078065 
0.325970 0.837871 0.057199 
0.337863 0.867255 0.062323 
1.575250 0.874699 0.072909 
0.718912 0.873273 0.067819 
0.814330 0.874320 0.067814 
0.910097 0.875667 0.067704 
0.623585 0.872808 0.067803 
1.196340 0.876430 0.067502 
1.005653 0.876669 0.067609 
1.101170 0.876913 0.067546 
0.528608 0.872656 0.067729 
0.434085 0.872552 0.067653 
1.291249 0.875364 0.067507 
1.385706 0.873693 0.067548 
1.479655 0.871655 0.067621 
0.326862 0.882851 0.077887 
1.586023 0.858828 0.057316 
0.409465 0.596268 0.000396 
0.337481 0.360625 0.000171 
0.374191 0.793404 0.000402 
0.522631 0.718465 0.000613 
0.530069 0.558651 0.000225 
1.046286 0.853393 0.000632 
0.312748 0.680862 0.000414 
0.428516 0.473708 0.000184 
0.283712 0.492609 0.000472 
0.245453 0.182786 0.000108 
0.617514 0.836430 0.000848 
0.257329 0.774686 0.000210 
0.422682 0.700032 0.000464 
1.188513 0.851584 0.000482 
0.399582 0.208482 -0.000145 
1.384096 0.848148 0.000308 
0.505538 0.839321 0.000597 
0.487182 0.638010 0.000404 
0.469410 0.344369 -0.000190 
0.584790 0.637754 0.000469 
0.303831 0.587209 0.000459 
0.225478 0.355750 0.000417 
0.770700 0.833796 0.001071 
0.537222 0.461762 -0.000035 
1.110957 0.801221 0.000510 
0.712998 0.535110 0.000397 
0.909455 0.908841 0.000841 
0.943363 0.784491 0.000698 
0.828172 0.541259 0.000582 
0.312477 0.886995 0.000232 
0.252422 0.637817 0.000547 
0.453867 0.530276 0.000240 
0.363219 0.511326 0.000361 
0.393428 0.886259 0.000388 
0.586755 0.543115 0.000085 
1.030640 0.774368 0.000529 
0.624549 0.748551 0.000793 
0.995305 0.657040 0.000497 
0.176493 0.096757 0.000215 
0.180911 0.798431 -0.000021 
1.291533 0.794537 0.000302 
1.483793 0.791617 0.000244 
0.172683 0.274032 0.000358 
0.345100 0.112652 -0.000076 
0.374923 0.648728 0.000437 
0.934089 0.583841 0.000696 
0.201516 0.445326 0.000595 
0.471232 0.759252 0.000532 
0.255509 0.708142 0.000319 
0.352936 0.439339 0.000237 
0.192522 0.896461 -0.000108 
0.283718 0.287765 0.000166 
1.113936 0.916143 0.000641 
1.287472 0.894952 0.000452 
0.250055 0.561613 0.000521 
1.478588 0.903257 0.000298 
0.569684 0.908623 0.000681 
0.457485 0.149759 -0.000368 
0.365851 0.721343 0.000419 
0.478671 0.250775 -0.000302 
0.443082 0.068357 -0.000331 
0.280566 0.411117 0.000403 
0.692025 0.904068 0.000883 
0.610608 0.590479 0.000101 
0.581899 0.489422 0.000021 
0.531477 0.386153 -0.000239 
0.551207 0.781525 0.000716 
0.471414 0.580506 0.000321 
0.696175 0.792659 0.001040 
0.411338 0.389975 0.000060 
0.132744 0.181489 0.000343 
[...]
POINT_DATA 749
SCALARS u float 1
LOOKUP_TABLE default
0.057961
0.020749
0.028694
0.008522
0.029247
0.018178
0.065477
0.046832
0.049493
0.031356
0.025582
0.029436
0.047517
0.031213
0.058017
0.021132
0.029520
0.007794
0.029791
0.018894
0.065009
0.046308
0.051602
0.032551
0.026305
0.029583
0.049630
0.031164
0.056502
0.056861
0.059269
0.053835
0.021616
0.021369
0.019533
0.023976
0.042109
0.027383
0.018342
0.050772
0.044678
0.040223
0.037611
0.035962
0.034364
0.032182
0.028891
0.022968
0.017171
0.016171
0.013493
0.008908
0.003705
0.004597
0.012790
0.023347
0.034395
0.044053
0.052754
0.059206
0.063425
0.056993
0.017976
0.028980
0.026824
0.021700
0.016451
0.015481
0.038191
0.023358
0.032774
0.042676
0.021059
0.037057
0.039903
0.041893
0.043313
0.045086
0.042437
0.027905
0.018980
0.050836
0.044718
0.040165
0.037441
0.035889
0.034601
0.032454
0.029512
0.023649
0.017891
0.016709
0.013875
0.009125
0.003387
0.004470
0.013040
0.023717
0.034709
0.044124
0.052519
0.058739
0.062773
0.056327
0.018084
0.028976
0.026367
0.020986
0.015956
0.015540
0.039353
0.026522
0.035543
0.044200
0.021281
0.037040
0.039771
0.041494
0.042783
0.044435
0.058154
0.021024
0.029033
0.007274
0.029933
0.018572
0.065321
0.046679
0.049161
0.031725
0.027784
0.028757
0.048949
0.031582
0.054434
0.054648
0.058594
0.058269
0.019896
0.023045
0.023235
0.020090
0.054637
0.052180
0.048935
0.044672
0.039520
0.033307
0.025319
0.015759
0.006921
0.002317
0.008350
0.014381
0.018752
0.057643
0.054859
0.051074
0.045984
0.040287
0.033442
0.025205
0.016152
0.007422
0.001003
0.006881
0.012187
0.016326
0.054955
0.052461
0.049100
0.044696
0.039435
0.033192
0.025190
0.015713
0.006929
0.002693
0.008401
0.014252
0.018570
0.052150
0.049863
0.047041
0.043311
0.038381
0.033031
0.025313
0.015679
0.005240
0.004299
0.011255
0.017172
0.021506
0.062577
0.049868
0.050096
0.062702
0.052517
0.052061
0.060546
0.060120
0.054840
0.054424
0.058545
0.058185
0.060144
0.052498
0.052720
0.060436
0.050783
0.062085
0.021618
0.054683
0.002737
0.010348
0.020339
0.006594
0.041466
0.018340
0.029334
0.013044
0.036131
0.046020
0.049562
0.052299
0.022697
0.053987
0.019145
0.056755
0.011791
0.003839
0.021093
0.004148
0.029383
0.010282
0.015278
0.042689
0.036784
0.047867
0.051740
0.054801
0.018746
0.057914
0.022134
0.022918
0.022372
0.021800
0.021202
0.054836
0.022093
0.002637
0.010375
0.020191
0.006577
0.036062
0.013023
0.029267
0.041472
0.018222
0.046081
0.049664
0.052446
0.054044
0.021372
0.019015
0.057702
0.003902
0.011766
0.021031
0.004289
0.042693
0.029339
0.036743
0.010276
0.015079
0.047818
0.051847
0.054950
0.018787
0.056941
0.029473
0.025435
0.021357
0.019131
0.028474
0.032577
0.028504
0.030086
0.031956
0.018870
0.006275
0.024950
0.024499
0.041807
0.009810
0.050692
0.013137
0.025825
0.024955
0.023036
0.031690
0.028656
0.007619
0.029239
0.036275
0.032902
0.020131
0.024452
0.044642
0.019069
0.031148
0.029953
0.031142
0.016639
0.027744
0.031858
0.009960
0.025621
0.029371
0.024359
0.044787
0.050554
0.029073
0.007583
0.028449
0.036641
0.032629
0.019088
0.028182
0.029616
0.020529
0.020961
0.037852
0.048398
0.032897
0.056971
0.007411
0.006740
0.025163
0.017019
0.009737
0.029518
0.002853
0.027088
0.028297
0.028131
0.013295
0.028771
0.004083
0.027283
0.032829
0.019377
0.027059
0.026423
0.015500
0.019131
0.028876
0.026729
0.039757
0.046502
0.010908
0.026211
0.029810
0.060787
0.015732
0.025549
0.023156
0.053866
0.030917
0.012314
0.027404
0.007723
0.022708
0.027321
0.028982
0.050384
0.013148
0.028837
0.017464
0.023843
0.025547
0.030283
0.046375
0.029599
0.045223
0.021839
0.021573
0.030406
0.025938
0.016661
0.032560
0.017292
0.018364
0.021770
0.026111
0.034932
0.036871
0.033623
0.039769
0.026743
0.032058
0.019625
0.009528
0.029642
0.025277
0.021940
0.019085
0.028681
0.033017
0.028809
0.030031
0.031832
0.019206
0.005871
0.025444
0.024694
0.041845
0.009247
0.050219
0.013263
0.025778
0.024413
0.023229
0.031712
0.028144
0.007554
0.029384
0.036602
0.033777
0.020441
0.024832
0.046474
0.019534
0.031400
0.030024
0.031117
0.016948
0.028221
0.032188
0.010012
0.027149
0.029736
0.025046
0.044556
0.049961
0.028992
0.007934
0.028645
0.039397
0.032689
0.019199
0.028601
0.029348
0.021248
0.021012
0.038010
0.048178
0.032915
0.056333
0.007149
0.006322
0.025456
0.016485
0.010186
0.029423
0.002297
0.026972
0.028534
0.027890
0.013226
0.028952
0.003706
0.026787
0.033153
0.019304
0.027128
0.026998
0.015423
0.019768
0.029099
0.027238
0.039651
0.046063
0.011052
0.026367
0.029902
0.060157
0.015845
0.025952
0.023127
0.053473
0.030965
0.012584
0.027334
0.007353
0.022636
0.027830
0.028841
0.049835
0.012496
0.029188
0.017768
0.023282
0.026595
0.030462
0.048324
0.030204
0.045276
0.022321
0.022166
0.030402
0.026198
0.017155
0.032319
0.017267
0.018932
0.022079
0.025894
0.034716
0.036949
0.033508
0.039923
0.027441
0.032045
0.020372
0.009544
0.024173
0.014640
0.028080
0.018466
0.016849
0.029181
0.029099
0.017034
0.031359
0.045962
0.045445
0.020717
0.039697
0.038373
0.037560
0.031099
0.030084
0.008965
0.008883
0.025478
0.025630
0.017920
0.020941
0.016388
0.023891
0.045107
0.035892
0.035066
0.038663
0.042439
0.044295
0.040897
0.035538
0.045500
0.045732
0.035373
0.017201
0.015447
0.011626
0.006278
0.001164
0.008153
0.018075
0.029084
0.039921
0.048813
0.056127
0.061370
0.064126
0.017915
0.017956
0.064801
0.034578
0.022656
0.018030
0.048044
0.047688
0.038965
0.033052
0.037331
0.042082
0.035597
0.031443
0.053291
0.053762
0.031148
0.029289
0.029612
0.029210
0.029344
0.020859
0.021152
0.026242
0.026503
0.023482
0.036467
0.030087
0.030028
0.028563
0.031269
0.029965
0.027531
0.027422
0.026970
0.028682
0.025235
0.024269
0.024140
0.030342
0.030428
0.030009
0.029966
0.029205
0.026084
0.031287
0.029130
0.025542
0.029337
0.023261
0.031137
0.022587
0.026962
0.042394
0.014263
0.013991
0.018437
0.018519
0.023971
0.026968
0.026876
0.021737
0.021682
0.016891
0.032425
0.044146
0.030758
0.024434
0.028848
0.027762
0.028796
0.024343
0.027090
0.026901
0.021130
0.023802
0.025890
0.019616
0.019396
0.025966
0.028226
0.029684
0.029706
0.029056
0.028930
0.032283
0.033264
0.032259
0.033492
0.031046
0.031108
0.031274
0.017292
0.022913
0.025291
0.036483
0.028333
0.028449
0.039827
0.027994
0.024939
0.028105
0.021830
0.024103
0.026848
0.008836
0.008647
0.004002
0.009916
0.010350
0.010087
0.030063
0.031123
0.024611
0.020960
0.028035
0.039888
0.025201
0.023651
0.021548
0.026874
0.025708
0.027750
0.048875
0.047435
0.045984
0.045814
0.027968
0.041844
0.032779
0.020321
0.018637
0.017953
0.044316
0.024613
0.025594
0.024900
0.042400
0.021309
0.021646
0.023106
0.023182
0.021610
0.020212
0.019081
0.018459
0.022761
0.023045
0.023284
0.024327
0.025404
0.022669
0.023377
0.023560
0.023772
0.022259
0.024922
0.023618
0.021978
0.024765
0.023377
0.023247
0.026058
0.024562
0.024542
0.023064
0.021614
0.027262
0.028840
0.025616
0.025621
0.017822
0.052945
