# vtk DataFile Version 2.0
Unstructured Grid Example
ASCII
DATASET UNSTRUCTURED_GRID
POINTS 1221 float
0.000033 0.000083 -0.000890 
0.999886 0.000193 -0.001916 
1.000040 1.000017 0.000132 
0.000274 0.999861 -0.002203 
-0.000085 -0.000049 0.049109 
1.000145 -0.000181 0.048087 
0.999978 0.999973 0.050132 
-0.000255 1.000120 0.047797 
-0.000098 0.049950 0.049255 
-0.000097 0.099937 0.049425 
-0.000102 0.149927 0.049621 
-0.000099 0.199949 0.049825 
-0.000080 0.249946 0.050011 
-0.000082 0.299947 0.050175 
-0.000087 0.349945 0.050328 
-0.000075 0.399953 0.050476 
-0.000075 0.449968 0.050586 
-0.000073 0.499986 0.050635 
-0.000082 0.550009 0.050608 
-0.000094 0.600042 0.050515 
-0.000131 0.650098 0.050281 
-0.000172 0.700146 0.049973 
-0.000211 0.750153 0.049577 
-0.000216 0.800149 0.049162 
-0.000244 0.850113 0.048743 
-0.000256 0.900124 0.048401 
-0.000268 0.950126 0.048085 
0.000007 0.050084 -0.000744 
-0.000016 0.100097 -0.000573 
-0.000051 0.150103 -0.000382 
-0.000080 0.200099 -0.000168 
-0.000109 0.250075 0.000009 
-0.000122 0.300077 0.000168 
-0.000134 0.350074 0.000329 
-0.000153 0.400061 0.000476 
-0.000163 0.450029 0.000583 
-0.000167 0.500008 0.000632 
-0.000156 0.549973 0.000606 
-0.000155 0.599942 0.000522 
-0.000097 0.649898 0.000300 
-0.000048 0.699868 -0.000030 
0.000028 0.749833 -0.000423 
0.000093 0.799848 -0.000850 
0.000144 0.849842 -0.001239 
0.000187 0.899852 -0.001588 
0.000245 0.949863 -0.001913 
-0.000026 0.000017 0.024112 
0.000009 0.999991 0.022802 
0.049917 -0.000026 0.049241 
0.099903 0.000003 0.049410 
0.149894 0.000039 0.049610 
0.199895 0.000078 0.049820 
0.249895 0.000092 0.050015 
0.299899 0.000108 0.050207 
0.349919 0.000143 0.050415 
0.399920 0.000159 0.050596 
0.449943 0.000172 0.050737 
0.499978 0.000179 0.050813 
0.550012 0.000179 0.050801 
0.600047 0.000163 0.050721 
0.650106 0.000130 0.050503 
0.700145 0.000074 0.050181 
0.750178 0.000013 0.049815 
0.800172 -0.000030 0.049403 
0.850160 -0.000057 0.049020 
0.900152 -0.000097 0.048687 
0.950144 -0.000147 0.048365 
0.050037 0.000099 -0.000758 
0.100054 0.000094 -0.000588 
0.150059 0.000072 -0.000404 
0.200047 0.000075 -0.000179 
0.250048 0.000082 0.000015 
0.300069 0.000084 0.000205 
0.350069 0.000076 0.000416 
0.400060 0.000069 0.000596 
0.450042 0.000064 0.000738 
0.500014 0.000059 0.000811 
0.549990 0.000061 0.000805 
0.599966 0.000067 0.000712 
0.649909 0.000094 0.000521 
0.699879 0.000121 0.000183 
0.749862 0.000163 -0.000209 
0.799853 0.000198 -0.000600 
0.849870 0.000213 -0.000977 
0.899873 0.000209 -0.001316 
0.949879 0.000212 -0.001628 
1.000015 0.000007 0.023090 
1.000157 0.049824 0.048482 
1.000151 0.099815 0.048919 
1.000129 0.149813 0.049348 
1.000122 0.199809 0.049845 
1.000112 0.249825 0.050304 
1.000071 0.299896 0.050678 
1.000041 0.349912 0.051029 
1.000006 0.399980 0.051236 
0.999986 0.450035 0.051297 
0.999981 0.500076 0.051202 
0.999978 0.550096 0.051012 
0.999992 0.600108 0.050766 
1.000018 0.650090 0.050494 
1.000031 0.700034 0.050310 
1.000036 0.750025 0.050176 
1.000033 0.800011 0.050082 
1.000023 0.849991 0.050041 
1.000013 0.899978 0.050053 
0.999996 0.949973 0.050089 
0.999918 0.050193 -0.001510 
0.999954 0.100211 -0.001081 
1.000012 0.150195 -0.000630 
1.000054 0.200214 -0.000155 
1.000081 0.250208 0.000308 
1.000144 0.300161 0.000683 
1.000174 0.350115 0.001041 
1.000213 0.400063 0.001239 
1.000235 0.449992 0.001290 
1.000254 0.499940 0.001201 
1.000256 0.549923 0.001013 
1.000237 0.599906 0.000764 
1.000196 0.649921 0.000505 
1.000168 0.699945 0.000305 
1.000149 0.749954 0.000180 
1.000125 0.799974 0.000089 
1.000098 0.849999 0.000040 
1.000078 0.900014 0.000051 
1.000060 0.950017 0.000089 
1.000009 0.999995 0.025132 
0.949978 0.999954 0.050071 
0.899986 0.999929 0.050021 
0.850000 0.999903 0.049990 
0.800012 0.999878 0.049991 
0.750031 0.999858 0.050028 
0.700053 0.999838 0.050114 
0.650065 0.999825 0.050264 
0.600118 0.999795 0.050477 
0.550118 0.999788 0.050750 
0.500092 0.999780 0.050988 
0.450054 0.999785 0.051155 
0.400019 0.999790 0.051263 
0.349959 0.999811 0.051217 
0.299863 0.999863 0.051018 
0.249788 0.999913 0.050631 
0.199756 0.999964 0.050091 
0.149759 0.999992 0.049505 
0.099760 1.000035 0.048939 
0.049743 1.000092 0.048359 
0.950040 0.999997 0.000071 
0.900034 0.999984 0.000021 
0.850024 0.999974 -0.000014 
0.800012 0.999968 -0.000003 
0.749993 0.999961 0.000027 
0.699964 0.999960 0.000110 
0.649942 0.999956 0.000261 
0.599904 0.999978 0.000483 
0.549886 0.999991 0.000752 
0.499905 0.999993 0.000986 
0.449940 0.999976 0.001158 
0.399974 0.999981 0.001253 
0.350017 0.999978 0.001224 
0.300111 0.999945 0.001034 
0.250191 0.999906 0.000629 
0.200230 0.999864 0.000066 
0.150238 0.999850 -0.000497 
0.100272 0.999853 -0.001056 
0.050269 0.999852 -0.001643 
0.024378 0.999952 0.016955 
0.019692 1.000036 0.033433 
0.975711 0.999991 0.018990 
0.980204 0.999978 0.035524 
0.481667 0.999883 0.026059 
0.775012 0.999915 0.025003 
0.675017 0.999895 0.025178 
0.525740 0.999889 0.025874 
0.725012 0.999902 0.025053 
0.625020 0.999879 0.025356 
0.075009 0.999959 0.023645 
0.224990 0.999904 0.025361 
0.575088 0.999893 0.025619 
0.175001 0.999920 0.024790 
0.125013 0.999930 0.024225 
0.875009 0.999947 0.024999 
0.825015 0.999928 0.024985 
0.374998 0.999891 0.026264 
0.918343 0.999963 0.025035 
0.274977 0.999912 0.025844 
0.324983 0.999904 0.026156 
0.424993 0.999885 0.026217 
0.500045 0.500006 0.049293 
0.292244 0.295012 0.049938 
0.707688 0.705012 0.049374 
0.709101 0.290874 0.050192 
0.290903 0.709136 0.050257 
0.501430 0.781223 0.049903 
0.784429 0.498068 0.049906 
0.499491 0.223411 0.050159 
0.224221 0.502725 0.050167 
0.168126 0.170697 0.049862 
0.831107 0.169645 0.050053 
0.830347 0.830919 0.049732 
0.168808 0.830303 0.050178 
0.563695 0.640538 0.049230 
0.436352 0.359472 0.049639 
0.642430 0.437705 0.049458 
0.353391 0.566991 0.049797 
0.639881 0.846619 0.049714 
0.360706 0.153891 0.050210 
0.151240 0.360544 0.050145 
0.846789 0.360185 0.050572 
0.846313 0.641306 0.049860 
0.641564 0.153746 0.050367 
0.358465 0.846210 0.050707 
0.153714 0.634830 0.050316 
0.678279 0.581462 0.049258 
0.560680 0.330954 0.049763 
0.439357 0.669096 0.049675 
0.321722 0.420347 0.049849 
0.533848 0.881799 0.050296 
0.465229 0.118033 0.050493 
0.882261 0.465718 0.050635 
0.119842 0.465602 0.050384 
0.744351 0.896439 0.049787 
0.107873 0.258249 0.049987 
0.258552 0.097892 0.050028 
0.896694 0.255614 0.050336 
0.889661 0.737023 0.049898 
0.737093 0.110411 0.050155 
0.262845 0.889527 0.050690 
0.110095 0.738536 0.050132 
0.601007 0.739914 0.049405 
0.398975 0.260103 0.049968 
0.745226 0.404711 0.050026 
0.251643 0.597765 0.050155 
0.598434 0.520914 0.049148 
0.398051 0.474991 0.049615 
0.611769 0.254101 0.050122 
0.388141 0.745704 0.050166 
0.097519 0.094791 0.049578 
0.902529 0.094721 0.049300 
0.905224 0.902333 0.049917 
0.098335 0.905457 0.049304 
0.436887 0.902879 0.050766 
0.903067 0.563224 0.050404 
0.563183 0.097080 0.050562 
0.096837 0.563163 0.050450 
0.258587 0.202381 0.049988 
0.741872 0.797156 0.049543 
0.797295 0.258174 0.050333 
0.208969 0.745347 0.050360 
0.196101 0.279019 0.049955 
0.798199 0.716066 0.049618 
0.714690 0.206705 0.050289 
0.285274 0.793244 0.050533 
0.502108 0.411992 0.049432 
0.497302 0.588287 0.049342 
0.240790 0.365406 0.049996 
0.759164 0.634379 0.049519 
0.689549 0.500764 0.049415 
0.645957 0.345434 0.049859 
0.308769 0.504889 0.049911 
0.354052 0.654553 0.049951 
0.080153 0.183321 0.049790 
0.176943 0.084328 0.049770 
0.817616 0.919047 0.049846 
0.919275 0.182283 0.049838 
0.917249 0.820938 0.049895 
0.821104 0.082743 0.049645 
0.080625 0.817669 0.049561 
0.185116 0.914193 0.050094 
0.651935 0.655375 0.049231 
0.348079 0.344624 0.049814 
0.514104 0.696395 0.049483 
0.485956 0.303596 0.049827 
0.610300 0.916964 0.050119 
0.389445 0.083195 0.050419 
0.078318 0.394599 0.050346 
0.917158 0.389917 0.050896 
0.924991 0.660503 0.050174 
0.660583 0.075148 0.050436 
0.339672 0.924847 0.050993 
0.074311 0.661493 0.050324 
0.431236 0.821599 0.050385 
0.820976 0.565921 0.049906 
0.568599 0.178064 0.050350 
0.179504 0.566905 0.050307 
0.190354 0.431495 0.050181 
0.573781 0.818128 0.049792 
0.426640 0.179132 0.050256 
0.821626 0.426992 0.050371 
0.565480 0.457640 0.049283 
0.435360 0.542079 0.049504 
0.774295 0.331307 0.050347 
0.225426 0.668180 0.050251 
0.667577 0.781075 0.049477 
0.333239 0.218490 0.050036 
0.677414 0.930158 0.049963 
0.068465 0.317875 0.050165 
0.322647 0.069767 0.050242 
0.930395 0.322592 0.050732 
0.745716 0.559594 0.049541 
0.447896 0.736232 0.049902 
0.551962 0.263482 0.050027 
0.614165 0.594796 0.049159 
0.385997 0.405964 0.049677 
0.258560 0.443257 0.050030 
0.585455 0.393007 0.049536 
0.414592 0.607037 0.049640 
0.450668 0.428074 0.049490 
0.548689 0.572147 0.049197 
0.484833 0.934486 0.050757 
0.934667 0.515290 0.050782 
0.515217 0.065484 0.050657 
0.065230 0.515226 0.050523 
0.500265 0.838305 0.050215 
0.837913 0.507363 0.050209 
0.500334 0.152394 0.050412 
0.153488 0.501197 0.050343 
0.696717 0.842729 0.049645 
0.303851 0.156919 0.050089 
0.842430 0.302805 0.050459 
0.149256 0.702101 0.050290 
0.159528 0.231227 0.049935 
0.841977 0.773153 0.049736 
0.773257 0.158068 0.050162 
0.226670 0.841868 0.050492 
0.670002 0.238294 0.050247 
0.330007 0.761639 0.050383 
0.696899 0.355830 0.049983 
0.303089 0.644186 0.050086 
0.939607 0.606583 0.050428 
0.606552 0.060541 0.050597 
0.393801 0.939471 0.051042 
0.060231 0.606632 0.050456 
0.700245 0.433397 0.049686 
0.303886 0.558582 0.049963 
0.054325 0.054082 0.049376 
0.945739 0.053969 0.048778 
0.945890 0.945534 0.050012 
0.054266 0.945997 0.048674 
0.772770 0.945856 0.049892 
0.055578 0.232288 0.049938 
0.226787 0.054342 0.049925 
0.945201 0.771629 0.049996 
0.771790 0.054831 0.049818 
0.228775 0.944801 0.050462 
0.946661 0.226946 0.050126 
0.054759 0.771744 0.049683 
0.219908 0.160230 0.049938 
0.775332 0.847385 0.049680 
0.847579 0.224692 0.050219 
0.155434 0.774721 0.050232 
0.553276 0.947594 0.050516 
[...]
POINT_DATA 1221
SCALARS u float 1
LOOKUP_TABLE default
0.094132
0.202912
0.014597
0.234017
0.094275
0.202763
0.014332
0.233690
0.079212
0.061745
0.041986
0.021831
0.010193
0.021071
0.036184
0.050965
0.062269
0.067245
0.064591
0.055219
0.034168
0.023901
0.052221
0.092376
0.135218
0.170876
0.203847
0.078805
0.061213
0.041984
0.022190
0.013964
0.023299
0.038154
0.052954
0.063782
0.068756
0.065895
0.057574
0.034816
0.015098
0.047905
0.091342
0.132287
0.168880
0.203429
0.093492
0.231214
0.080393
0.062961
0.042753
0.023451
0.014829
0.026802
0.046941
0.065468
0.079859
0.087571
0.086355
0.077940
0.055757
0.025620
0.027040
0.065396
0.104676
0.139448
0.173340
0.080468
0.062930
0.043610
0.021059
0.010141
0.024447
0.045060
0.063470
0.078092
0.085568
0.084958
0.075333
0.056486
0.026389
0.031446
0.068197
0.106065
0.140760
0.173224
0.200937
0.161639
0.116477
0.072677
0.028857
0.038752
0.072551
0.108721
0.130012
0.136533
0.126765
0.106992
0.081425
0.052855
0.032955
0.019042
0.009400
0.005058
0.006153
0.009750
0.160416
0.115916
0.069339
0.028380
0.040090
0.075357
0.111682
0.132439
0.137952
0.129255
0.110177
0.084727
0.057555
0.037119
0.025063
0.016404
0.011149
0.009908
0.011409
0.013901
0.009151
0.007971
0.010245
0.012888
0.015615
0.021581
0.034021
0.055970
0.082920
0.106960
0.123702
0.134706
0.129626
0.109073
0.070673
0.027650
0.057970
0.114495
0.174975
0.008513
0.004512
0.004045
0.003608
0.005087
0.012816
0.028492
0.051861
0.080036
0.104229
0.121995
0.131863
0.128783
0.109532
0.069819
0.029003
0.060097
0.115784
0.175838
0.203654
0.209004
0.010849
0.011496
0.112129
0.009040
0.021847
0.092721
0.011844
0.039642
0.142665
0.039276
0.066069
0.023635
0.081911
0.005687
0.007858
0.133496
0.005470
0.089295
0.122054
0.128577
0.074527
0.011971
0.066275
0.023932
0.029512
0.023583
0.012231
0.024026
0.018174
0.017622
0.013821
0.029424
0.028174
0.081657
0.039163
0.057921
0.021930
0.035693
0.027316
0.016663
0.060230
0.014851
0.041488
0.076788
0.034303
0.078106
0.028583
0.035549
0.016092
0.039154
0.054409
0.067268
0.040990
0.027065
0.007559
0.012724
0.038295
0.011097
0.018107
0.074601
0.022787
0.063695
0.014279
0.009135
0.017392
0.089780
0.040531
0.019962
0.024134
0.045174
0.075219
0.011394
0.077120
0.083481
0.043062
0.061620
0.048146
0.011632
0.049563
0.036275
0.040195
0.012321
0.040332
0.032235
0.058661
0.060256
0.069696
0.005342
0.050648
0.061659
0.019763
0.009539
0.011634
0.024265
0.026892
0.020104
0.024878
0.012893
0.039640
0.052171
0.023524
0.081490
0.020456
0.056989
0.023218
0.027496
0.047285
0.037238
0.094308
0.018514
0.048148
0.106137
0.037470
0.045095
0.010847
0.040194
0.033010
0.020302
0.030772
0.031363
0.039829
0.075887
0.052361
0.037384
0.027897
0.056154
0.013064
0.020878
0.019597
0.028590
0.077605
0.048344
0.021259
0.016479
0.088783
0.034188
0.004939
0.050193
0.038634
0.053898
0.084936
0.082622
0.082624
0.071488
0.055675
0.032398
0.023594
0.046268
0.036729
0.040434
0.016133
0.049003
0.032345
0.010009
0.028124
0.018636
0.054555
0.028845
0.043658
0.011389
0.013265
0.045544
0.065070
0.111748
0.048845
0.034549
0.005666
0.066496
0.130524
0.004895
0.142460
0.018197
0.010048
0.015203
0.003480
0.025252
0.053331
0.024318
0.041228
0.012793
0.035603
0.025155
0.032719
0.059207
0.110528
0.067660
0.050645
0.008915
0.019726
0.034763
0.078153
0.049366
0.015586
0.042284
0.067567
0.028070
0.077981
0.023996
0.010671
0.070261
0.071801
0.013305
0.041451
0.044236
0.066685
0.012057
0.086887
0.006120
0.100946
0.064378
0.076668
0.022168
0.021217
0.027990
0.016627
0.017437
0.015924
0.023564
0.041764
0.071064
0.012386
0.054431
0.034827
0.042493
0.012366
0.054442
0.050991
0.019659
0.037686
0.013036
0.024122
0.020097
0.093790
0.029283
0.036203
0.019480
0.028421
0.050097
0.035481
0.083432
0.028587
0.014236
0.039293
0.025985
0.043980
0.016602
0.021669
0.091890
0.014155
0.052117
0.041747
0.029044
0.084858
0.057222
0.030233
0.010332
0.006467
0.036094
0.034257
0.062515
0.019519
0.026854
0.028264
0.069297
0.107730
0.077019
0.074985
0.057379
0.021633
0.017453
0.036191
0.060042
0.054834
0.059995
0.047331
0.022766
0.026689
0.027423
0.073622
0.066545
0.013105
0.017116
0.013066
0.017496
0.057800
0.027016
0.014071
0.023343
0.050174
0.046852
0.007789
0.030911
0.026253
0.034287
0.045855
0.102132
0.006883
0.064530
0.062794
0.030390
0.020044
0.035559
0.045553
0.014724
0.060212
0.012314
0.035270
0.032938
0.028355
0.029887
0.038502
0.013720
0.003896
0.065386
0.086068
0.024894
0.067278
0.020474
0.034135
0.041492
0.007666
0.080500
0.064392
0.033180
0.027980
0.024559
0.008514
0.049800
0.079505
0.033574
0.039231
0.021255
0.016558
0.085635
0.032161
0.084918
0.024392
0.114270
0.030965
0.041813
0.028566
0.047487
0.020190
0.003498
0.090683
0.042912
0.026143
0.019591
0.022863
0.023631
0.032552
0.019375
0.045441
0.047471
0.060802
0.113099
0.054982
0.022870
0.049749
0.040735
0.067815
0.003716
0.046336
0.037988
0.011515
0.015610
0.016934
0.019987
0.079304
0.016277
0.063857
0.053998
0.014911
0.012882
0.049706
0.015246
0.022736
0.036628
0.078391
0.042878
0.024444
0.018718
0.111522
0.077320
0.083997
0.059793
0.047131
0.032000
0.001570
0.034768
0.090243
0.028681
0.058486
0.059657
0.108265
0.007124
0.120083
0.004278
0.137505
0.111126
0.039884
0.047068
0.013796
0.056200
0.012666
0.017568
0.064091
0.038657
0.026776
0.013177
0.074104
0.027963
0.035419
0.030038
0.042734
0.046228
0.038173
0.092974
0.072944
0.030971
0.043403
0.087412
0.043812
0.057663
0.062614
0.012626
0.004924
0.020440
0.024811
0.033231
0.086733
0.033143
0.053593
0.029745
0.101597
0.080398
0.061725
0.101771
0.029343
0.044848
0.041312
0.041533
0.033613
0.019216
0.019231
0.051435
0.042857
0.090554
0.042624
0.030034
0.012565
0.053459
0.016095
0.009215
0.007512
0.028546
0.026364
0.065836
0.016586
0.024360
0.028436
0.042923
0.011956
0.037076
0.040900
0.032514
0.025029
0.019370
0.057233
0.025344
0.044434
0.058858
0.041815
0.120514
0.079232
0.164645
0.008488
0.186649
0.022658
0.019268
0.010780
0.076903
0.015609
0.021360
0.024100
0.050810
0.032993
0.028837
0.019840
0.086653
0.038110
0.037643
0.059437
0.012431
0.037707
0.029497
0.039369
0.088672
0.052285
0.009984
0.087264
0.061863
0.088908
0.065720
0.050523
0.011903
0.012122
0.181283
0.185269
0.120588
0.054397
0.015732
0.008866
0.006887
0.008036
0.012607
0.042830
0.091504
0.131638
0.093550
0.133792
0.136682
0.123502
0.094577
0.067478
0.026725
0.042014
0.187350
0.190034
0.087287
0.088520
0.087158
0.014987
0.121658
0.085300
0.156110
0.044070
0.031115
0.052609
0.012606
0.070089
0.055288
0.083554
0.035125
0.072278
0.068658
0.039676
0.009844
0.081396
0.073390
0.008969
0.067080
0.023580
0.029060
0.012187
0.025919
0.018356
0.024349
0.018255
0.020094
0.029189
0.024239
0.080653
0.036437
0.055818
0.025154
0.028925
0.022251
0.021200
0.063412
0.025768
0.039315
0.074498
0.036267
0.078953
0.019796
0.025737
0.035510
0.032327
0.051057
0.070241
0.043407
0.023042
0.013880
0.009167
0.039704
0.019380
0.022793
0.072597
0.016803
0.063275
0.003242
0.018124
0.019926
0.090028
0.041656
0.015271
0.020864
0.045112
0.077688
0.011718
0.078011
0.081595
0.048913
0.058521
0.049348
0.008355
0.048623
0.039058
0.041421
0.010396
0.043681
0.031143
0.056437
0.060048
0.069676
0.014333
0.052926
0.062153
0.016347
0.017558
0.012397
0.024658
0.025964
0.017284
0.026673
0.015445
0.044165
0.049578
0.024765
0.081413
0.054843
0.021145
0.018643
0.015301
0.044744
0.039918
0.096963
0.026960
0.046736
0.104705
0.036761
0.041766
0.026035
0.036211
0.035230
0.023660
0.021797
0.025735
0.042646
0.076297
0.052861
0.056429
0.035072
0.028665
0.007090
0.005064
0.022524
0.027550
0.079297
0.050780
0.013126
0.003959
0.088470
0.035518
0.014742
0.049507
0.039251
0.054863
0.084728
0.080504
0.086052
0.070112
0.057270
0.025213
0.033195
0.040973
0.040013
0.037815
0.011795
0.052813
0.032471
0.015260
0.031463
0.023012
0.052006
0.025928
0.042915
0.013800
0.015318
0.051638
0.062101
0.108806
0.049840
0.032721
0.016887
0.065919
0.129449
0.006278
0.143346
0.012516
0.015269
0.011539
0.014416
0.029572
0.050529
0.025642
0.039142
0.009924
0.036098
0.027496
0.023842
0.055795
0.111903
0.065297
0.052500
0.015137
0.026861
0.032340
0.076325
0.070762
0.002470
0.040142
0.068035
0.031169
0.044943
0.010667
0.015820
0.071656
0.076331
0.018978
0.042206
0.043473
0.066923
0.009548
0.086845
0.010618
0.099821
0.065051
0.081227
0.025334
0.030443
0.010977
0.013075
0.030952
0.013620
0.007093
0.038904
0.073363
0.008955
0.055886
0.032630
0.043285
0.010802
0.056284
0.012501
0.046521
0.039566
0.021171
0.025935
0.016277
0.094002
0.029319
0.039308
0.019155
0.026614
0.047627
0.031088
0.076152
0.030601
0.010858
0.041459
0.028867
0.040105
0.013665
0.020204
0.090753
0.026678
0.050478
0.042196
0.033393
0.085147
0.057783
0.014327
0.039836
0.031542
0.060161
0.018686
0.017942
0.023477
0.071706
0.106178
0.080664
0.073403
0.058215
0.023241
0.020880
0.030505
0.057101
0.059962
0.056666
0.049140
0.025505
0.020510
0.021736
0.073505
0.066644
0.018283
0.006759
0.016941
0.015526
0.059339
0.025780
0.025816
0.017748
0.016681
0.050300
0.045514
0.034202
0.049842
0.016494
0.018586
0.035890
0.043447
0.103778
0.014212
0.065745
0.064369
0.030272
0.018772
0.038188
0.044292
0.012421
0.006294
0.060813
0.033978
0.033109
0.027804
0.028586
0.037145
0.009571
0.012147
0.067469
0.083828
0.028358
0.036049
0.070932
0.025468
0.023727
0.045753
0.015734
0.015804
0.080348
0.064796
0.031068
0.040202
0.028517
0.023506
0.034363
0.016519
0.049223
0.079577
0.028726
0.035734
0.000966
0.015381
0.085332
0.085244
0.026803
0.113109
0.037393
0.043833
0.028178
0.011885
0.041481
0.021389
0.088860
0.040926
0.022994
0.022304
0.019101
0.009062
0.037996
0.049691
0.040747
0.049530
0.058438
0.116903
0.051898
0.033169
0.047503
0.042635
0.066012
0.024612
0.044386
0.038620
0.016546
0.014746
0.022661
0.023241
0.063436
0.054282
0.017782
0.024329
0.048021
0.020073
0.009498
0.033242
0.081195
0.113729
0.075120
0.080382
0.061305
0.045895
0.049710
0.033240
0.017907
0.033153
0.088944
0.021947
0.058196
0.059375
0.107621
0.005539
0.120460
0.007687
0.137232
0.111307
0.042283
0.029265
0.007770
0.054146
0.073906
0.011211
0.015863
0.018815
0.065508
0.039406
0.027550
0.020868
0.031154
0.033756
0.015764
0.026811
0.031706
0.094774
0.064636
0.015290
0.044127
0.086613
0.082357
0.044635
0.005613
0.062756
0.010343
0.026969
0.030749
0.088102
0.025179
0.055241
0.032460
0.025111
0.104329
0.079219
0.063160
0.100224
0.026298
0.043195
0.044393
0.050701
0.044132
0.034004
0.018429
0.011365
0.043884
0.090562
0.045758
0.033722
0.009054
0.050627
0.021376
0.012747
0.014479
0.033257
0.031080
0.064120
0.009299
0.018752
0.087889
0.030606
0.008280
0.033817
0.042603
0.034055
0.020615
0.015272
0.058358
0.030133
0.049715
0.057994
0.042525
0.120158
0.079221
0.164503
0.009085
0.186249
0.014858
0.008317
0.078262
0.019691
0.021827
0.024275
0.027464
0.015039
0.051047
0.030302
0.032090
0.004521
0.088429
0.034759
0.036521
0.061939
0.014156
0.039191
0.026861
0.039668
0.088253
0.052981
0.015099
0.056678
0.091838
0.063969
0.052385
0.217305
0.220488
0.086419
0.087995
0.068018
0.014293
0.068373
0.111584
0.150120
0.185781
0.012334
0.030751
0.051145
0.068204
0.028635
0.066322
0.044309
0.058322
0.046780
0.060961
0.026966
0.019088
