# vtk DataFile Version 2.0
Unstructured Grid Example
ASCII
DATASET UNSTRUCTURED_GRID
POINTS 1221 float
-0.000344 -0.000865 0.009271 
1.001189 -0.002009 0.019948 
0.999581 0.999823 -0.001371 
-0.002854 1.001447 0.022942 
0.000881 0.000510 0.059276 
0.998487 0.001885 0.069924 
1.000230 1.000286 0.048630 
0.002655 0.998753 0.072944 
0.001018 0.050521 0.057757 
0.001006 0.100660 0.055992 
0.001064 0.150761 0.053945 
0.001029 0.200528 0.051825 
0.000832 0.250560 0.049890 
0.000859 0.300551 0.048181 
0.000909 0.350572 0.046583 
0.000777 0.400488 0.045039 
0.000780 0.450329 0.043895 
0.000760 0.500141 0.043389 
0.000855 0.549905 0.043665 
0.000981 0.599565 0.044641 
0.001360 0.648981 0.047076 
0.001789 0.698478 0.050282 
0.002193 0.748412 0.054403 
0.002254 0.798450 0.058725 
0.002536 0.848826 0.063089 
0.002668 0.898713 0.066652 
0.002787 0.948685 0.069940 
-0.000072 0.049121 0.007750 
0.000164 0.098985 0.005971 
0.000526 0.148930 0.003981 
0.000831 0.198966 0.001750 
0.001140 0.249224 -0.000095 
0.001275 0.299198 -0.001746 
0.001396 0.349227 -0.003423 
0.001596 0.399369 -0.004952 
0.001699 0.449698 -0.006073 
0.001740 0.499922 -0.006579 
0.001625 0.550279 -0.006311 
0.001616 0.600599 -0.005432 
0.001011 0.651061 -0.003119 
0.000503 0.701373 0.000311 
-0.000296 0.751735 0.004403 
-0.000964 0.801584 0.008849 
-0.001504 0.851640 0.012904 
-0.001942 0.901543 0.016531 
-0.002551 0.951428 0.019922 
0.000266 -0.000181 0.034248 
-0.000093 1.000092 0.047886 
0.050859 0.000274 0.057906 
0.101015 -0.000032 0.056149 
0.151108 -0.000408 0.054064 
0.201097 -0.000809 0.051878 
0.251097 -0.000963 0.049844 
0.301056 -0.001123 0.047841 
0.350844 -0.001484 0.045679 
0.400835 -0.001653 0.043790 
0.450591 -0.001790 0.042323 
0.500227 -0.001861 0.041537 
0.549870 -0.001865 0.041659 
0.599514 -0.001699 0.042490 
0.648894 -0.001349 0.044764 
0.698487 -0.000769 0.048116 
0.748148 -0.000137 0.051928 
0.798214 0.000311 0.056214 
0.848335 0.000599 0.060209 
0.898420 0.001014 0.063674 
0.948506 0.001528 0.067024 
0.049613 -0.001028 0.007889 
0.099436 -0.000977 0.006126 
0.149381 -0.000754 0.004205 
0.199512 -0.000786 0.001868 
0.249499 -0.000856 -0.000154 
0.299281 -0.000876 -0.002138 
0.349286 -0.000787 -0.004332 
0.399371 -0.000715 -0.006210 
0.449561 -0.000662 -0.007689 
0.499850 -0.000610 -0.008446 
0.550102 -0.000632 -0.008385 
0.600354 -0.000693 -0.007416 
0.650945 -0.000977 -0.005423 
0.701264 -0.001260 -0.001907 
0.751438 -0.001694 0.002179 
0.801534 -0.002059 0.006243 
0.851350 -0.002213 0.010173 
0.901326 -0.002172 0.013698 
0.951258 -0.002208 0.016957 
0.999842 -0.000068 0.044888 
0.998363 0.051831 0.065810 
0.998429 0.101930 0.061257 
0.998655 0.151952 0.056792 
0.998727 0.201987 0.051610 
0.998832 0.251822 0.046833 
0.999256 0.301082 0.042940 
0.999578 0.350920 0.039286 
0.999934 0.400210 0.037133 
1.000145 0.449632 0.036491 
1.000200 0.499207 0.037479 
1.000232 0.548995 0.039460 
1.000087 0.598873 0.042020 
0.999813 0.649067 0.044856 
0.999677 0.699643 0.046774 
0.999622 0.749743 0.048172 
0.999654 0.799882 0.049145 
0.999759 0.850095 0.049572 
0.999866 0.900231 0.049453 
1.000045 0.950277 0.049077 
1.000849 0.047991 0.015728 
1.000476 0.097807 0.011252 
0.999879 0.147970 0.006555 
0.999443 0.197767 0.001610 
0.999152 0.247829 -0.003212 
0.998501 0.298321 -0.007111 
0.998184 0.348798 -0.010838 
0.997785 0.399349 -0.012904 
0.997548 0.450088 -0.013433 
0.997357 0.500627 -0.012502 
0.997334 0.550800 -0.010544 
0.997530 0.600976 -0.007955 
0.997956 0.650823 -0.005253 
0.998251 0.700571 -0.003180 
0.998450 0.750477 -0.001877 
0.998698 0.800273 -0.000931 
0.998980 0.850012 -0.000421 
0.999188 0.899858 -0.000531 
0.999376 0.949827 -0.000925 
0.999905 1.000056 0.023628 
0.950224 1.000474 0.049261 
0.900151 1.000744 0.049784 
0.849998 1.001009 0.050103 
0.799871 1.001266 0.050092 
0.749674 1.001483 0.049714 
0.699446 1.001689 0.048816 
0.649326 1.001826 0.047252 
0.598770 1.002135 0.045038 
0.548767 1.002210 0.042192 
0.499047 1.002293 0.039708 
0.449441 1.002236 0.037975 
0.399805 1.002190 0.036849 
0.350425 1.001963 0.037327 
0.301431 1.001428 0.039395 
0.252212 1.000902 0.043425 
0.202538 1.000380 0.049048 
0.152510 1.000087 0.055159 
0.102498 0.999632 0.061048 
0.052675 0.999046 0.067085 
0.949587 1.000027 -0.000734 
0.899650 1.000170 -0.000220 
0.849749 1.000275 0.000146 
0.799879 1.000334 0.000034 
0.750077 1.000408 -0.000285 
0.700372 1.000412 -0.001141 
0.650609 1.000454 -0.002716 
0.601003 1.000227 -0.005029 
0.551184 1.000090 -0.007833 
0.500991 1.000075 -0.010269 
0.450620 1.000248 -0.012057 
0.400267 1.000196 -0.013048 
0.349825 1.000233 -0.012744 
0.298848 1.000570 -0.010765 
0.248013 1.000979 -0.006546 
0.197602 1.001421 -0.000689 
0.147517 1.001565 0.005174 
0.097169 1.001533 0.010999 
0.047196 1.001545 0.017108 
0.023553 1.000504 0.039027 
0.020827 0.999625 0.056075 
0.975520 1.000095 0.017834 
0.980249 1.000225 0.034302 
0.481662 1.001218 0.013968 
0.774874 1.000885 0.024971 
0.674822 1.001093 0.023143 
0.525744 1.001154 0.015895 
0.724871 1.001023 0.024443 
0.624795 1.001264 0.021291 
0.074905 1.000423 0.039115 
0.225109 1.000999 0.021245 
0.575020 1.001119 0.018557 
0.174986 1.000837 0.027185 
0.124861 1.000729 0.033074 
0.874906 1.000555 0.025008 
0.824840 1.000746 0.025153 
0.375016 1.001132 0.011835 
0.918236 1.000388 0.024635 
0.275239 1.000920 0.016213 
0.325177 1.001001 0.012962 
0.425077 1.001202 0.012330 
0.499533 0.499937 0.057362 
0.293076 0.294312 0.050649 
0.707432 0.705739 0.056522 
0.708803 0.289514 0.048000 
0.291157 0.710383 0.047319 
0.500656 0.783396 0.051009 
0.784710 0.497342 0.050980 
0.499593 0.221543 0.048343 
0.224652 0.502957 0.048257 
0.169156 0.170351 0.051435 
0.829802 0.170063 0.049444 
0.830015 0.831751 0.052796 
0.171083 0.830479 0.048144 
0.563133 0.641485 0.058020 
0.436384 0.358416 0.053755 
0.642550 0.436600 0.055643 
0.353219 0.567510 0.052112 
0.639179 0.848573 0.052982 
0.361396 0.152293 0.047811 
0.151953 0.360699 0.048491 
0.846507 0.360166 0.044044 
0.846384 0.641108 0.051457 
0.641110 0.152159 0.046179 
0.358584 0.848300 0.042643 
0.154567 0.635179 0.046710 
0.678257 0.581642 0.057729 
0.560702 0.329443 0.052471 
0.438912 0.670033 0.053389 
0.322010 0.420364 0.051571 
0.532871 0.884182 0.046918 
0.465266 0.116237 0.044870 
0.882578 0.464927 0.043387 
0.120581 0.465737 0.046001 
0.743890 0.898014 0.052222 
0.108680 0.258272 0.050132 
0.259466 0.096909 0.049705 
0.895361 0.256478 0.046497 
0.889397 0.737159 0.051065 
0.736430 0.109860 0.048389 
0.264213 0.890785 0.042813 
0.112038 0.738305 0.048621 
0.600831 0.741179 0.056196 
0.399363 0.258647 0.050329 
0.745415 0.403785 0.049727 
0.252015 0.598314 0.048389 
0.597890 0.520943 0.058873 
0.397810 0.475033 0.054006 
0.611778 0.252439 0.048733 
0.387618 0.747429 0.048267 
0.098434 0.094813 0.054393 
0.901067 0.095549 0.057286 
0.905026 0.903106 0.050862 
0.100954 0.905113 0.057243 
0.436375 0.905194 0.042025 
0.903238 0.562462 0.045798 
0.562899 0.095230 0.044145 
0.097758 0.563104 0.045309 
0.259549 0.201576 0.050124 
0.741505 0.798422 0.054756 
0.796293 0.258090 0.046529 
0.209761 0.746591 0.046256 
0.197193 0.278444 0.050469 
0.798130 0.716437 0.053977 
0.714137 0.205685 0.046990 
0.286235 0.794845 0.044449 
0.501729 0.411243 0.055915 
0.496676 0.588897 0.056852 
0.241352 0.365272 0.050043 
0.759068 0.634601 0.055008 
0.689650 0.500291 0.056087 
0.646032 0.344014 0.051465 
0.308805 0.505073 0.050929 
0.353830 0.655659 0.050515 
0.081210 0.183588 0.052186 
0.178139 0.083875 0.052393 
0.817332 0.920311 0.051601 
0.917937 0.183719 0.051691 
0.916791 0.821501 0.051091 
0.819773 0.083288 0.053698 
0.083104 0.816779 0.054571 
0.187420 0.914426 0.049022 
0.651472 0.656285 0.058012 
0.348209 0.343981 0.051934 
0.513271 0.698053 0.055381 
0.486105 0.302044 0.051805 
0.609184 0.919373 0.048759 
0.390141 0.081467 0.045639 
0.079144 0.394871 0.046401 
0.916731 0.389990 0.040674 
0.924673 0.660431 0.048192 
0.659602 0.073885 0.045463 
0.340478 0.926703 0.039658 
0.075885 0.660911 0.046622 
0.430827 0.823719 0.045995 
0.821144 0.565456 0.050974 
0.568418 0.176323 0.046356 
0.180216 0.567027 0.046800 
0.191093 0.431673 0.048114 
0.572866 0.820294 0.052162 
0.427122 0.177449 0.047338 
0.821815 0.426158 0.046136 
0.565373 0.456709 0.057463 
0.434973 0.542349 0.055165 
0.774120 0.330439 0.046389 
0.225968 0.668975 0.047382 
0.667378 0.782284 0.055445 
0.333982 0.217354 0.049629 
0.676552 0.932209 0.050389 
0.069421 0.318089 0.048278 
0.323475 0.068615 0.047483 
0.929745 0.323384 0.042376 
0.745565 0.559560 0.054783 
0.447217 0.738128 0.051025 
0.552028 0.261721 0.049724 
0.613686 0.595396 0.058760 
0.385848 0.405555 0.053361 
0.258961 0.443336 0.049684 
0.585287 0.391771 0.054836 
0.414232 0.607774 0.053750 
0.450187 0.427864 0.055313 
0.547900 0.572688 0.058362 
0.484235 0.936814 0.042121 
0.934929 0.514487 0.041858 
0.515243 0.063500 0.043160 
0.066150 0.515158 0.044554 
0.499329 0.840645 0.047766 
0.838305 0.506514 0.047826 
0.500405 0.150635 0.045711 
0.154194 0.501395 0.046427 
0.696257 0.844338 0.053700 
0.304535 0.155668 0.049074 
0.841530 0.303027 0.045224 
0.150281 0.702636 0.046977 
0.160295 0.231018 0.050675 
0.841768 0.773592 0.052748 
0.772510 0.157761 0.048309 
0.228248 0.842903 0.044882 
0.669681 0.236981 0.047425 
0.330049 0.763469 0.046014 
0.696922 0.354610 0.050177 
0.303209 0.645228 0.049102 
0.939725 0.605841 0.045544 
0.606163 0.058732 0.043785 
0.393667 0.941825 0.039150 
0.061220 0.606532 0.045251 
0.700371 0.432324 0.053275 
0.303898 0.559027 0.050386 
0.055417 0.054385 0.056500 
0.943913 0.055564 0.062729 
0.945907 0.946048 0.049880 
0.057252 0.945063 0.063809 
0.772460 0.947362 0.051129 
0.056387 0.232460 0.050648 
0.227795 0.053357 0.050783 
0.944830 0.771675 0.050044 
0.770006 0.054836 0.051897 
0.230974 0.945739 0.045193 
0.945148 0.228564 0.048692 
0.057086 0.770514 0.053299 
0.220817 0.159458 0.050647 
0.774970 0.848578 0.053336 
0.846492 0.224790 0.047718 
0.157803 0.774675 0.047588 
0.552327 0.949973 0.044626 
[...]
POINT_DATA 1221
SCALARS u float 1
LOOKUP_TABLE default
0.094132
0.202912
0.014597
0.234017
0.094275
0.202763
0.014332
0.233690
0.079212
0.061745
0.041986
0.021831
0.010193
0.021071
0.036184
0.050965
0.062269
0.067245
0.064591
0.055219
0.034168
0.023901
0.052221
0.092376
0.135218
0.170876
0.203847
0.078805
0.061213
0.041984
0.022190
0.013964
0.023299
0.038154
0.052954
0.063782
0.068756
0.065895
0.057574
0.034816
0.015098
0.047905
0.091342
0.132287
0.168880
0.203429
0.093492
0.231214
0.080393
0.062961
0.042753
0.023451
0.014829
0.026802
0.046941
0.065468
0.079859
0.087571
0.086355
0.077940
0.055757
0.025620
0.027040
0.065396
0.104676
0.139448
0.173340
0.080468
0.062930
0.043610
0.021059
0.010141
0.024447
0.045060
0.063470
0.078092
0.085568
0.084958
0.075333
0.056486
0.026389
0.031446
0.068197
0.106065
0.140760
0.173224
0.200937
0.161639
0.116477
0.072677
0.028857
0.038752
0.072551
0.108721
0.130012
0.136533
0.126765
0.106992
0.081425
0.052855
0.032955
0.019042
0.009400
0.005058
0.006153
0.009750
0.160416
0.115916
0.069339
0.028380
0.040090
0.075357
0.111682
0.132439
0.137952
0.129255
0.110177
0.084727
0.057555
0.037119
0.025063
0.016404
0.011149
0.009908
0.011409
0.013901
0.009151
0.007971
0.010245
0.012888
0.015615
0.021581
0.034021
0.055970
0.082920
0.106960
0.123702
0.134706
0.129626
0.109073
0.070673
0.027650
0.057970
0.114495
0.174975
0.008513
0.004512
0.004045
0.003608
0.005087
0.012816
0.028492
0.051861
0.080036
0.104229
0.121995
0.131863
0.128783
0.109532
0.069819
0.029003
0.060097
0.115784
0.175838
0.203654
0.209004
0.010849
0.011496
0.112129
0.009040
0.021847
0.092721
0.011844
0.039642
0.142665
0.039276
0.066069
0.023635
0.081911
0.005687
0.007858
0.133496
0.005470
0.089295
0.122054
0.128577
0.074527
0.011971
0.066275
0.023932
0.029512
0.023583
0.012231
0.024026
0.018174
0.017622
0.013821
0.029424
0.028174
0.081657
0.039163
0.057921
0.021930
0.035693
0.027316
0.016663
0.060230
0.014851
0.041488
0.076788
0.034303
0.078106
0.028583
0.035549
0.016092
0.039154
0.054409
0.067268
0.040990
0.027065
0.007559
0.012724
0.038295
0.011097
0.018107
0.074601
0.022787
0.063695
0.014279
0.009135
0.017392
0.089780
0.040531
0.019962
0.024134
0.045174
0.075219
0.011394
0.077120
0.083481
0.043062
0.061620
0.048146
0.011632
0.049563
0.036275
0.040195
0.012321
0.040332
0.032235
0.058661
0.060256
0.069696
0.005342
0.050648
0.061659
0.019763
0.009539
0.011634
0.024265
0.026892
0.020104
0.024878
0.012893
0.039640
0.052171
0.023524
0.081490
0.020456
0.056989
0.023218
0.027496
0.047285
0.037238
0.094308
0.018514
0.048148
0.106137
0.037470
0.045095
0.010847
0.040194
0.033010
0.020302
0.030772
0.031363
0.039829
0.075887
0.052361
0.037384
0.027897
0.056154
0.013064
0.020878
0.019597
0.028590
0.077605
0.048344
0.021259
0.016479
0.088783
0.034188
0.004939
0.050193
0.038634
0.053898
0.084936
0.082622
0.082624
0.071488
0.055675
0.032398
0.023594
0.046268
0.036729
0.040434
0.016133
0.049003
0.032345
0.010009
0.028124
0.018636
0.054555
0.028845
0.043658
0.011389
0.013265
0.045544
0.065070
0.111748
0.048845
0.034549
0.005666
0.066496
0.130524
0.004895
0.142460
0.018197
0.010048
0.015203
0.003480
0.025252
0.053331
0.024318
0.041228
0.012793
0.035603
0.025155
0.032719
0.059207
0.110528
0.067660
0.050645
0.008915
0.019726
0.034763
0.078153
0.049366
0.015586
0.042284
0.067567
0.028070
0.077981
0.023996
0.010671
0.070261
0.071801
0.013305
0.041451
0.044236
0.066685
0.012057
0.086887
0.006120
0.100946
0.064378
0.076668
0.022168
0.021217
0.027990
0.016627
0.017437
0.015924
0.023564
0.041764
0.071064
0.012386
0.054431
0.034827
0.042493
0.012366
0.054442
0.050991
0.019659
0.037686
0.013036
0.024122
0.020097
0.093790
0.029283
0.036203
0.019480
0.028421
0.050097
0.035481
0.083432
0.028587
0.014236
0.039293
0.025985
0.043980
0.016602
0.021669
0.091890
0.014155
0.052117
0.041747
0.029044
0.084858
0.057222
0.030233
0.010332
0.006467
0.036094
0.034257
0.062515
0.019519
0.026854
0.028264
0.069297
0.107730
0.077019
0.074985
0.057379
0.021633
0.017453
0.036191
0.060042
0.054834
0.059995
0.047331
0.022766
0.026689
0.027423
0.073622
0.066545
0.013105
0.017116
0.013066
0.017496
0.057800
0.027016
0.014071
0.023343
0.050174
0.046852
0.007789
0.030911
0.026253
0.034287
0.045855
0.102132
0.006883
0.064530
0.062794
0.030390
0.020044
0.035559
0.045553
0.014724
0.060212
0.012314
0.035270
0.032938
0.028355
0.029887
0.038502
0.013720
0.003896
0.065386
0.086068
0.024894
0.067278
0.020474
0.034135
0.041492
0.007666
0.080500
0.064392
0.033180
0.027980
0.024559
0.008514
0.049800
0.079505
0.033574
0.039231
0.021255
0.016558
0.085635
0.032161
0.084918
0.024392
0.114270
0.030965
0.041813
0.028566
0.047487
0.020190
0.003498
0.090683
0.042912
0.026143
0.019591
0.022863
0.023631
0.032552
0.019375
0.045441
0.047471
0.060802
0.113099
0.054982
0.022870
0.049749
0.040735
0.067815
0.003716
0.046336
0.037988
0.011515
0.015610
0.016934
0.019987
0.079304
0.016277
0.063857
0.053998
0.014911
0.012882
0.049706
0.015246
0.022736
0.036628
0.078391
0.042878
0.024444
0.018718
0.111522
0.077320
0.083997
0.059793
0.047131
0.032000
0.001570
0.034768
0.090243
0.028681
0.058486
0.059657
0.108265
0.007124
0.120083
0.004278
0.137505
0.111126
0.039884
0.047068
0.013796
0.056200
0.012666
0.017568
0.064091
0.038657
0.026776
0.013177
0.074104
0.027963
0.035419
0.030038
0.042734
0.046228
0.038173
0.092974
0.072944
0.030971
0.043403
0.087412
0.043812
0.057663
0.062614
0.012626
0.004924
0.020440
0.024811
0.033231
0.086733
0.033143
0.053593
0.029745
0.101597
0.080398
0.061725
0.101771
0.029343
0.044848
0.041312
0.041533
0.033613
0.019216
0.019231
0.051435
0.042857
0.090554
0.042624
0.030034
0.012565
0.053459
0.016095
0.009215
0.007512
0.028546
0.026364
0.065836
0.016586
0.024360
0.028436
0.042923
0.011956
0.037076
0.040900
0.032514
0.025029
0.019370
0.057233
0.025344
0.044434
0.058858
0.041815
0.120514
0.079232
0.164645
0.008488
0.186649
0.022658
0.019268
0.010780
0.076903
0.015609
0.021360
0.024100
0.050810
0.032993
0.028837
0.019840
0.086653
0.038110
0.037643
0.059437
0.012431
0.037707
0.029497
0.039369
0.088672
0.052285
0.009984
0.087264
0.061863
0.088908
0.065720
0.050523
0.011903
0.012122
0.181283
0.185269
0.120588
0.054397
0.015732
0.008866
0.006887
0.008036
0.012607
0.042830
0.091504
0.131638
0.093550
0.133792
0.136682
0.123502
0.094577
0.067478
0.026725
0.042014
0.187350
0.190034
0.087287
0.088520
0.087158
0.014987
0.121658
0.085300
0.156110
0.044070
0.031115
0.052609
0.012606
0.070089
0.055288
0.083554
0.035125
0.072278
0.068658
0.039676
0.009844
0.081396
0.073390
0.008969
0.067080
0.023580
0.029060
0.012187
0.025919
0.018356
0.024349
0.018255
0.020094
0.029189
0.024239
0.080653
0.036437
0.055818
0.025154
0.028925
0.022251
0.021200
0.063412
0.025768
0.039315
0.074498
0.036267
0.078953
0.019796
0.025737
0.035510
0.032327
0.051057
0.070241
0.043407
0.023042
0.013880
0.009167
0.039704
0.019380
0.022793
0.072597
0.016803
0.063275
0.003242
0.018124
0.019926
0.090028
0.041656
0.015271
0.020864
0.045112
0.077688
0.011718
0.078011
0.081595
0.048913
0.058521
0.049348
0.008355
0.048623
0.039058
0.041421
0.010396
0.043681
0.031143
0.056437
0.060048
0.069676
0.014333
0.052926
0.062153
0.016347
0.017558
0.012397
0.024658
0.025964
0.017284
0.026673
0.015445
0.044165
0.049578
0.024765
0.081413
0.054843
0.021145
0.018643
0.015301
0.044744
0.039918
0.096963
0.026960
0.046736
0.104705
0.036761
0.041766
0.026035
0.036211
0.035230
0.023660
0.021797
0.025735
0.042646
0.076297
0.052861
0.056429
0.035072
0.028665
0.007090
0.005064
0.022524
0.027550
0.079297
0.050780
0.013126
0.003959
0.088470
0.035518
0.014742
0.049507
0.039251
0.054863
0.084728
0.080504
0.086052
0.070112
0.057270
0.025213
0.033195
0.040973
0.040013
0.037815
0.011795
0.052813
0.032471
0.015260
0.031463
0.023012
0.052006
0.025928
0.042915
0.013800
0.015318
0.051638
0.062101
0.108806
0.049840
0.032721
0.016887
0.065919
0.129449
0.006278
0.143346
0.012516
0.015269
0.011539
0.014416
0.029572
0.050529
0.025642
0.039142
0.009924
0.036098
0.027496
0.023842
0.055795
0.111903
0.065297
0.052500
0.015137
0.026861
0.032340
0.076325
0.070762
0.002470
0.040142
0.068035
0.031169
0.044943
0.010667
0.015820
0.071656
0.076331
0.018978
0.042206
0.043473
0.066923
0.009548
0.086845
0.010618
0.099821
0.065051
0.081227
0.025334
0.030443
0.010977
0.013075
0.030952
0.013620
0.007093
0.038904
0.073363
0.008955
0.055886
0.032630
0.043285
0.010802
0.056284
0.012501
0.046521
0.039566
0.021171
0.025935
0.016277
0.094002
0.029319
0.039308
0.019155
0.026614
0.047627
0.031088
0.076152
0.030601
0.010858
0.041459
0.028867
0.040105
0.013665
0.020204
0.090753
0.026678
0.050478
0.042196
0.033393
0.085147
0.057783
0.014327
0.039836
0.031542
0.060161
0.018686
0.017942
0.023477
0.071706
0.106178
0.080664
0.073403
0.058215
0.023241
0.020880
0.030505
0.057101
0.059962
0.056666
0.049140
0.025505
0.020510
0.021736
0.073505
0.066644
0.018283
0.006759
0.016941
0.015526
0.059339
0.025780
0.025816
0.017748
0.016681
0.050300
0.045514
0.034202
0.049842
0.016494
0.018586
0.035890
0.043447
0.103778
0.014212
0.065745
0.064369
0.030272
0.018772
0.038188
0.044292
0.012421
0.006294
0.060813
0.033978
0.033109
0.027804
0.028586
0.037145
0.009571
0.012147
0.067469
0.083828
0.028358
0.036049
0.070932
0.025468
0.023727
0.045753
0.015734
0.015804
0.080348
0.064796
0.031068
0.040202
0.028517
0.023506
0.034363
0.016519
0.049223
0.079577
0.028726
0.035734
0.000966
0.015381
0.085332
0.085244
0.026803
0.113109
0.037393
0.043833
0.028178
0.011885
0.041481
0.021389
0.088860
0.040926
0.022994
0.022304
0.019101
0.009062
0.037996
0.049691
0.040747
0.049530
0.058438
0.116903
0.051898
0.033169
0.047503
0.042635
0.066012
0.024612
0.044386
0.038620
0.016546
0.014746
0.022661
0.023241
0.063436
0.054282
0.017782
0.024329
0.048021
0.020073
0.009498
0.033242
0.081195
0.113729
0.075120
0.080382
0.061305
0.045895
0.049710
0.033240
0.017907
0.033153
0.088944
0.021947
0.058196
0.059375
0.107621
0.005539
0.120460
0.007687
0.137232
0.111307
0.042283
0.029265
0.007770
0.054146
0.073906
0.011211
0.015863
0.018815
0.065508
0.039406
0.027550
0.020868
0.031154
0.033756
0.015764
0.026811
0.031706
0.094774
0.064636
0.015290
0.044127
0.086613
0.082357
0.044635
0.005613
0.062756
0.010343
0.026969
0.030749
0.088102
0.025179
0.055241
0.032460
0.025111
0.104329
0.079219
0.063160
0.100224
0.026298
0.043195
0.044393
0.050701
0.044132
0.034004
0.018429
0.011365
0.043884
0.090562
0.045758
0.033722
0.009054
0.050627
0.021376
0.012747
0.014479
0.033257
0.031080
0.064120
0.009299
0.018752
0.087889
0.030606
0.008280
0.033817
0.042603
0.034055
0.020615
0.015272
0.058358
0.030133
0.049715
0.057994
0.042525
0.120158
0.079221
0.164503
0.009085
0.186249
0.014858
0.008317
0.078262
0.019691
0.021827
0.024275
0.027464
0.015039
0.051047
0.030302
0.032090
0.004521
0.088429
0.034759
0.036521
0.061939
0.014156
0.039191
0.026861
0.039668
0.088253
0.052981
0.015099
0.056678
0.091838
0.063969
0.052385
0.217305
0.220488
0.086419
0.087995
0.068018
0.014293
0.068373
0.111584
0.150120
0.185781
0.012334
0.030751
0.051145
0.068204
0.028635
0.066322
0.044309
0.058322
0.046780
0.060961
0.026966
0.019088
