# vtk DataFile Version 2.0
Unstructured Grid Example
ASCII
DATASET UNSTRUCTURED_GRID
POINTS 2674 float
-0.015820 0.519761 0.007160 
0.482426 0.018007 0.003333 
-0.019328 -0.480239 0.001255 
-0.517574 0.021515 0.005083 
-0.008821 0.496140 4.007160 
0.489425 -0.005614 4.003333 
-0.012329 -0.503860 4.001255 
-0.510575 -0.002106 4.005083 
-0.016259 0.394761 0.006422 
0.357426 0.018445 0.003551 
-0.018890 -0.355239 0.001993 
-0.392574 0.021076 0.004864 
-0.009259 0.371140 4.006422 
0.364425 -0.005175 4.003551 
-0.011890 -0.378860 4.001993 
-0.385575 -0.002545 4.004864 
0.088691 0.486190 4.006933 
0.182387 0.457409 4.006601 
0.268669 0.410900 4.006176 
0.344219 0.348453 4.005677 
0.406135 0.272467 4.005120 
0.452036 0.185861 4.004529 
0.480160 0.091965 4.003925 
0.479476 -0.103125 4.002773 
0.450694 -0.196822 4.002269 
0.404186 -0.283103 4.001840 
0.341738 -0.358654 4.001501 
0.265752 -0.420569 4.001266 
0.179147 -0.466471 4.001145 
0.085250 -0.494595 4.001141 
-0.109840 -0.493910 4.001482 
-0.203537 -0.465129 4.001815 
-0.289818 -0.418620 4.002239 
-0.365368 -0.356173 4.002738 
-0.427284 -0.280187 4.003295 
-0.473186 -0.193581 4.003886 
-0.501310 -0.099685 4.004490 
-0.500625 0.095405 4.005642 
-0.471843 0.189102 4.006146 
-0.425335 0.275383 4.006575 
-0.362888 0.350934 4.006914 
-0.286901 0.412849 4.007149 
-0.200296 0.458751 4.007270 
-0.106400 0.486875 4.007274 
-0.507625 0.119026 0.005642 
-0.478843 0.212723 0.006146 
-0.432335 0.299004 0.006575 
-0.369888 0.374554 0.006914 
-0.293901 0.436470 0.007149 
-0.207296 0.482372 0.007270 
-0.113399 0.510496 0.007274 
0.081691 0.509811 0.006933 
0.175388 0.481029 0.006601 
0.261669 0.434521 0.006176 
0.337219 0.372074 0.005677 
0.399135 0.296088 0.005120 
0.445037 0.209482 0.004529 
0.473160 0.115586 0.003925 
0.472476 -0.079505 0.002773 
0.443694 -0.173201 0.002269 
0.397186 -0.259483 0.001840 
0.334739 -0.335033 0.001501 
0.258752 -0.396948 0.001266 
0.172147 -0.442850 0.001145 
0.078251 -0.470974 0.001141 
-0.116840 -0.470290 0.001482 
-0.210536 -0.441508 0.001815 
-0.296818 -0.395000 0.002239 
-0.372368 -0.332552 0.002738 
-0.434284 -0.256566 0.003295 
-0.480185 -0.169960 0.003886 
-0.508309 -0.076064 0.004490 
-0.015645 0.519170 0.107160 
-0.015470 0.518580 0.207160 
-0.015295 0.517989 0.307160 
-0.015120 0.517399 0.407160 
-0.014945 0.516808 0.507160 
-0.014770 0.516218 0.607160 
-0.014595 0.515627 0.707160 
-0.014420 0.515037 0.807160 
-0.014246 0.514446 0.907160 
-0.014071 0.513856 1.007160 
-0.013896 0.513265 1.107160 
-0.013721 0.512675 1.207160 
-0.013546 0.512084 1.307160 
-0.013371 0.511494 1.407160 
-0.013196 0.510903 1.507160 
-0.013021 0.510312 1.607160 
-0.012846 0.509722 1.707160 
-0.012671 0.509131 1.807160 
-0.012496 0.508541 1.907160 
-0.012321 0.507950 2.007160 
-0.012146 0.507360 2.107160 
-0.011971 0.506769 2.207160 
-0.011796 0.506179 2.307160 
-0.011621 0.505588 2.407160 
-0.011446 0.504998 2.507160 
-0.011271 0.504407 2.607160 
-0.011096 0.503817 2.707160 
-0.010921 0.503226 2.807160 
-0.010746 0.502636 2.907160 
-0.010571 0.502045 3.007160 
-0.010396 0.501455 3.107160 
-0.010221 0.500864 3.207160 
-0.010046 0.500274 3.307160 
-0.009871 0.499683 3.407160 
-0.009696 0.499093 3.507160 
-0.009521 0.498502 3.607160 
-0.009346 0.497912 3.707160 
-0.009171 0.497321 3.807160 
-0.008996 0.496731 3.907160 
-0.517399 0.020924 0.105083 
-0.517224 0.020334 0.205083 
-0.517049 0.019743 0.305083 
-0.516874 0.019153 0.405083 
-0.516699 0.018562 0.505083 
-0.516524 0.017972 0.605083 
-0.516349 0.017381 0.705083 
-0.516174 0.016791 0.805083 
-0.515999 0.016200 0.905083 
-0.515824 0.015610 1.005083 
-0.515649 0.015019 1.105083 
-0.515474 0.014428 1.205083 
-0.515299 0.013838 1.305083 
-0.515124 0.013247 1.405083 
-0.514949 0.012657 1.505083 
-0.514774 0.012066 1.605083 
-0.514600 0.011476 1.705083 
-0.514425 0.010885 1.805083 
-0.514250 0.010295 1.905083 
-0.514075 0.009704 2.005083 
-0.513900 0.009114 2.105083 
-0.513725 0.008523 2.205083 
-0.513550 0.007933 2.305083 
-0.513375 0.007342 2.405083 
-0.513200 0.006752 2.505083 
-0.513025 0.006161 2.605083 
-0.512850 0.005571 2.705083 
-0.512675 0.004980 2.805083 
-0.512500 0.004390 2.905083 
-0.512325 0.003799 3.005083 
-0.512150 0.003209 3.105083 
-0.511975 0.002618 3.205083 
-0.511800 0.002028 3.305083 
-0.511625 0.001437 3.405083 
-0.511450 0.000847 3.505083 
-0.511275 0.000256 3.605083 
-0.511100 -0.000335 3.705083 
-0.510925 -0.000925 3.805083 
-0.510750 -0.001516 3.905083 
-0.019153 -0.480830 0.101255 
-0.018978 -0.481420 0.201255 
-0.018803 -0.482011 0.301255 
-0.018628 -0.482601 0.401255 
-0.018453 -0.483192 0.501255 
-0.018278 -0.483782 0.601255 
-0.018103 -0.484373 0.701255 
-0.017928 -0.484963 0.801255 
-0.017753 -0.485554 0.901255 
-0.017578 -0.486144 1.001255 
-0.017403 -0.486735 1.101255 
-0.017228 -0.487325 1.201255 
-0.017053 -0.487916 1.301255 
-0.016878 -0.488506 1.401255 
-0.016703 -0.489097 1.501255 
-0.016528 -0.489688 1.601255 
-0.016353 -0.490278 1.701255 
-0.016178 -0.490869 1.801255 
-0.016003 -0.491459 1.901255 
-0.015828 -0.492050 2.001255 
-0.015653 -0.492640 2.101255 
-0.015478 -0.493231 2.201255 
-0.015303 -0.493821 2.301255 
-0.015128 -0.494412 2.401255 
-0.014954 -0.495002 2.501255 
-0.014779 -0.495593 2.601255 
-0.014604 -0.496183 2.701255 
-0.014429 -0.496774 2.801255 
-0.014254 -0.497364 2.901255 
-0.014079 -0.497955 3.001255 
-0.013904 -0.498545 3.101255 
-0.013729 -0.499136 3.201255 
-0.013554 -0.499726 3.301255 
-0.013379 -0.500317 3.401255 
-0.013204 -0.500907 3.501255 
-0.013029 -0.501498 3.601255 
-0.012854 -0.502088 3.701255 
-0.012679 -0.502679 3.801255 
-0.012504 -0.503269 3.901255 
0.482601 0.017416 0.103333 
0.482776 0.016826 0.203333 
0.482951 0.016235 0.303333 
0.483126 0.015645 0.403333 
0.483301 0.015054 0.503333 
0.483476 0.014464 0.603333 
0.483651 0.013873 0.703333 
0.483826 0.013283 0.803333 
0.484001 0.012692 0.903333 
0.484176 0.012102 1.003333 
0.484351 0.011511 1.103333 
0.484526 0.010921 1.203333 
0.484701 0.010330 1.303333 
0.484876 0.009740 1.403333 
0.485051 0.009149 1.503333 
0.485226 0.008559 1.603333 
0.485400 0.007968 1.703333 
0.485575 0.007378 1.803333 
0.485750 0.006787 1.903333 
0.485925 0.006196 2.003333 
0.486100 0.005606 2.103333 
0.486275 0.005015 2.203333 
0.486450 0.004425 2.303333 
0.486625 0.003834 2.403333 
0.486800 0.003244 2.503333 
0.486975 0.002653 2.603333 
0.487150 0.002063 2.703333 
0.487325 0.001472 2.803333 
0.487500 0.000882 2.903333 
0.487675 0.000291 3.003333 
0.487850 -0.000299 3.103333 
0.488025 -0.000890 3.203333 
0.488200 -0.001480 3.303333 
0.488375 -0.002071 3.403333 
0.488550 -0.002661 3.503333 
0.488725 -0.003252 3.603333 
0.488900 -0.003842 3.703333 
0.489075 -0.004433 3.803333 
0.489250 -0.005023 3.903333 
-0.379456 0.118089 0.005415 
-0.341676 0.208400 0.005883 
-0.281809 0.285856 0.006237 
-0.203935 0.345178 0.006453 
-0.113361 0.382323 0.006516 
0.080753 0.381643 0.006177 
0.171065 0.343863 0.005797 
0.248521 0.283996 0.005309 
0.307843 0.206122 0.004747 
0.344988 0.115547 0.004147 
0.078212 -0.342802 0.001899 
0.168786 -0.305656 0.001962 
0.246661 -0.246334 0.002178 
0.306527 -0.168878 0.002532 
0.344307 -0.078567 0.003001 
-0.115902 -0.342121 0.002238 
-0.206214 -0.304341 0.002618 
-0.283670 -0.244474 0.003106 
-0.342992 -0.166600 0.003669 
-0.380137 -0.076026 0.004268 
-0.372456 0.094468 4.005415 
-0.334677 0.184779 4.005883 
-0.274810 0.262235 4.006237 
-0.196936 0.321557 4.006453 
-0.106361 0.358703 4.006516 
0.351988 0.091927 4.004147 
0.314843 0.182501 4.004747 
0.255520 0.260375 4.005309 
0.178064 0.320242 4.005797 
0.087753 0.358022 4.006177 
0.085212 -0.366423 4.001899 
0.175786 -0.329277 4.001962 
0.253660 -0.269955 4.002178 
0.313527 -0.192499 4.002532 
0.351307 -0.102188 4.003001 
-0.108902 -0.365742 4.002238 
-0.199214 -0.327962 4.002618 
-0.276670 -0.268095 4.003106 
-0.335992 -0.190221 4.003669 
-0.373137 -0.099647 4.004268 
-0.009434 0.371731 3.906422 
-0.009609 0.372321 3.806422 
-0.009784 0.372912 3.706422 
-0.009959 0.373502 3.606422 
-0.010134 0.374093 3.506422 
-0.010309 0.374683 3.406422 
-0.010484 0.375274 3.306422 
-0.010659 0.375864 3.206422 
-0.010834 0.376455 3.106422 
-0.011009 0.377045 3.006422 
-0.011184 0.377636 2.906422 
-0.011359 0.378226 2.806422 
-0.011534 0.378817 2.706422 
-0.011709 0.379407 2.606422 
-0.011884 0.379998 2.506422 
-0.012059 0.380588 2.406422 
-0.012234 0.381179 2.306422 
-0.012409 0.381769 2.206422 
-0.012584 0.382360 2.106422 
-0.012759 0.382950 2.006422 
-0.012934 0.383541 1.906422 
-0.013109 0.384131 1.806422 
-0.013284 0.384722 1.706422 
-0.013459 0.385312 1.606422 
-0.013634 0.385903 1.506422 
-0.013809 0.386494 1.406422 
-0.013984 0.387084 1.306422 
-0.014159 0.387675 1.206422 
-0.014334 0.388265 1.106422 
-0.014509 0.388856 1.006422 
-0.014684 0.389446 0.906422 
-0.014859 0.390037 0.806422 
-0.015034 0.390627 0.706422 
-0.015209 0.391218 0.606422 
-0.015384 0.391808 0.506422 
-0.015559 0.392399 0.406422 
-0.015734 0.392989 0.306422 
-0.015909 0.393580 0.206422 
-0.016084 0.394170 0.106422 
0.357601 0.017855 0.103551 
0.357776 0.017264 0.203551 
0.357951 0.016674 0.303551 
0.358126 0.016083 0.403551 
0.358301 0.015493 0.503551 
0.358476 0.014902 0.603551 
0.358651 0.014312 0.703551 
0.358826 0.013721 0.803551 
0.359001 0.013131 0.903551 
0.359176 0.012540 1.003551 
0.359351 0.011950 1.103551 
0.359526 0.011359 1.203551 
0.359701 0.010769 1.303551 
0.359876 0.010178 1.403551 
0.360051 0.009588 1.503551 
0.360226 0.008997 1.603551 
0.360400 0.008407 1.703551 
0.360575 0.007816 1.803551 
0.360750 0.007225 1.903551 
0.360925 0.006635 2.003551 
0.361100 0.006044 2.103551 
0.361275 0.005454 2.203551 
0.361450 0.004863 2.303551 
0.361625 0.004273 2.403551 
0.361800 0.003682 2.503551 
0.361975 0.003092 2.603551 
0.362150 0.002501 2.703551 
0.362325 0.001911 2.803551 
0.362500 0.001320 2.903551 
0.362675 0.000730 3.003551 
0.362850 0.000139 3.103551 
0.363025 -0.000451 3.203551 
0.363200 -0.001042 3.303551 
0.363375 -0.001632 3.403551 
[...]
POINT_DATA 2674
SCALARS u float 1
LOOKUP_TABLE default
0.014156
0.013658
0.014890
0.015197
0.006457
0.006688
0.006985
0.006415
0.014198
0.013842
0.014750
0.014997
0.006410
0.006617
0.006812
0.006411
0.006460
0.006464
0.006472
0.006488
0.006517
0.006560
0.006618
0.006764
0.006842
0.006913
0.006972
0.007012
0.007028
0.007019
0.006928
0.006853
0.006767
0.006677
0.006591
0.006515
0.006456
0.006392
0.006387
0.006394
0.006408
0.006425
0.006440
0.006451
0.015127
0.015035
0.014923
0.014793
0.014646
0.014488
0.014323
0.013996
0.013851
0.013728
0.013635
0.013579
0.013564
0.013590
0.013763
0.013899
0.014057
0.014230
0.014407
0.014581
0.014744
0.015016
0.015117
0.015194
0.015244
0.015269
0.015269
0.015245
0.013862
0.013569
0.013278
0.012989
0.012702
0.012417
0.012135
0.011855
0.011578
0.011303
0.011032
0.010765
0.010501
0.010240
0.009985
0.009733
0.009487
0.009246
0.009010
0.008781
0.008559
0.008343
0.008136
0.007937
0.007747
0.007567
0.007397
0.007238
0.007092
0.006958
0.006838
0.006731
0.006640
0.006564
0.006504
0.006461
0.006434
0.006425
0.006432
0.014897
0.014599
0.014301
0.014006
0.013712
0.013419
0.013129
0.012840
0.012554
0.012270
0.011988
0.011709
0.011433
0.011160
0.010890
0.010623
0.010360
0.010102
0.009847
0.009598
0.009353
0.009114
0.008881
0.008654
0.008434
0.008222
0.008017
0.007822
0.007636
0.007460
0.007294
0.007141
0.006999
0.006871
0.006756
0.006657
0.006572
0.006503
0.006450
0.014598
0.014308
0.014020
0.013733
0.013449
0.013167
0.012887
0.012610
0.012335
0.012063
0.011795
0.011529
0.011267
0.011009
0.010755
0.010505
0.010260
0.010020
0.009785
0.009556
0.009333
0.009116
0.008907
0.008705
0.008511
0.008326
0.008150
0.007985
0.007829
0.007685
0.007553
0.007433
0.007326
0.007233
0.007154
0.007089
0.007040
0.007006
0.006987
0.013369
0.013081
0.012795
0.012512
0.012231
0.011953
0.011677
0.011405
0.011135
0.010869
0.010607
0.010349
0.010095
0.009845
0.009601
0.009361
0.009128
0.008901
0.008681
0.008467
0.008262
0.008065
0.007877
0.007699
0.007531
0.007374
0.007229
0.007097
0.006977
0.006872
0.006781
0.006706
0.006646
0.006602
0.006575
0.006564
0.006570
0.006593
0.006632
0.014919
0.014812
0.014679
0.014526
0.014362
0.014044
0.013915
0.013823
0.013777
0.013784
0.014598
0.014429
0.014255
0.014090
0.013948
0.014876
0.014971
0.015031
0.015055
0.015043
0.006384
0.006375
0.006379
0.006388
0.006399
0.006552
0.006499
0.006461
0.006436
0.006421
0.006840
0.006838
0.006808
0.006755
0.006688
0.006758
0.006685
0.006604
0.006525
0.006459
0.006388
0.006384
0.006397
0.006428
0.006475
0.006538
0.006618
0.006713
0.006822
0.006946
0.007084
0.007233
0.007395
0.007568
0.007751
0.007943
0.008145
0.008355
0.008572
0.008797
0.009028
0.009266
0.009509
0.009757
0.010010
0.010267
0.010529
0.010794
0.011063
0.011336
0.011611
0.011889
0.012170
0.012453
0.012739
0.013027
0.013317
0.013609
0.013902
0.013551
0.013262
0.012974
0.012689
0.012406
0.012126
0.011848
0.011573
0.011301
0.011032
0.010767
0.010505
0.010248
0.009995
0.009746
0.009503
0.009265
0.009033
0.008807
0.008589
0.008377
0.008174
0.007979
0.007793
0.007618
0.007453
0.007299
0.007157
0.007029
0.006913
0.006812
0.006726
0.006655
0.006600
0.006561
0.006539
0.006533
0.006545
0.006573
0.006812
0.006827
0.006859
0.006907
0.006970
0.007048
0.007140
0.007247
0.007367
0.007499
0.007644
0.007800
0.007967
0.008144
0.008330
0.008525
0.008729
0.008940
0.009158
0.009383
0.009614
0.009851
0.010093
0.010340
0.010592
0.010847
0.011107
0.011371
0.011638
0.011909
0.012182
0.012458
0.012737
0.013018
0.013302
0.013588
0.013875
0.014165
0.014457
0.014698
0.014401
0.014105
0.013810
0.013517
0.013226
0.012937
0.012651
0.012366
0.012084
0.011804
0.011527
0.011253
0.010982
0.010714
0.010451
0.010191
0.009935
0.009684
0.009438
0.009197
0.008962
0.008734
0.008512
0.008297
0.008091
0.007892
0.007703
0.007524
0.007356
0.007198
0.007053
0.006921
0.006802
0.006698
0.006608
0.006535
0.006477
0.006436
0.007392
0.008545
0.007733
0.007915
0.008092
0.009734
0.010751
0.011000
0.010243
0.006770
0.006951
0.007047
0.007148
0.006804
0.006865
0.012100
0.011835
0.013167
0.012374
0.012636
0.013685
0.011288
0.006692
0.013742
0.014227
0.006828
0.006821
0.006695
0.013466
0.013793
0.009838
0.010317
0.007024
0.006761
0.008970
0.010046
0.010688
0.007502
0.007175
0.006959
0.006714
0.011175
0.010522
0.008514
0.007302
0.007000
0.008705
0.010491
0.009021
0.007645
0.011994
0.007305
0.007181
0.008275
0.010966
0.006883
0.009486
0.012478
0.007434
0.007031
0.008445
0.008116
0.009234
0.008718
0.012908
0.007088
0.006809
0.013402
0.006779
0.013438
0.013761
0.014015
0.006807
0.006733
0.006780
0.006835
0.006628
0.013466
0.014143
0.009317
0.013145
0.013780
0.006847
0.006648
0.013436
0.013156
0.007253
0.006815
0.006750
0.012335
0.012650
0.006770
0.006882
0.012952
0.013168
0.006966
0.007120
0.007543
0.007442
0.006906
0.006677
0.010504
0.010263
0.006851
0.006707
0.008975
0.008745
0.009431
0.009891
0.010092
0.010736
0.007747
0.007232
0.007221
0.006800
0.008500
0.007911
0.008726
0.008499
0.009124
0.008484
0.008934
0.008312
0.009680
0.010029
0.011497
0.011858
0.006946
0.006619
0.012146
0.012806
0.012129
0.012317
0.011107
0.011708
0.010519
0.010759
0.011625
0.012253
0.011305
0.011988
0.009878
0.010560
0.011842
0.012564
0.010269
0.010948
0.010511
0.011206
0.010771
0.011414
0.009677
0.010321
0.007773
0.007510
0.011279
0.011529
0.009316
0.009604
0.007619
0.007114
0.012665
0.012994
0.007012
0.006656
0.008717
0.008112
0.007225
0.007064
0.006954
0.006797
0.011872
0.012155
0.008505
0.008364
0.007321
0.006871
0.007448
0.007281
0.007950
0.007668
0.009985
0.010230
0.008346
0.007751
0.007121
0.006727
0.008160
0.007656
0.007835
0.007361
0.007029
0.006882
0.006883
0.006609
0.008258
0.012872
0.013611
0.013704
0.014439
0.013961
0.007131
0.007362
0.011545
0.010966
0.011298
0.006830
0.008930
0.010276
0.010738
0.010505
0.010732
0.010992
0.012517
0.013209
0.012925
0.006852
0.006586
0.006816
0.006719
0.009963
0.009540
0.008224
0.007903
0.007599
0.008731
0.009528
0.009747
0.007782
0.008065
0.012916
0.012410
0.008256
0.008091
0.009010
0.009195
0.009450
0.010097
0.007977
0.007482
0.009826
0.009213
0.009399
0.009171
0.008962
0.009647
0.006619
0.006826
0.008813
0.009477
0.006907
0.008192
0.007196
0.007728
0.007964
0.007361
0.009412
0.009144
0.009727
0.010508
0.006385
0.006405
0.006569
0.006788
0.006500
0.006442
0.011632
0.012215
0.012561
0.013219
0.008582
0.010914
0.006391
0.006435
0.006402
0.013487
0.013700
0.006482
0.013146
0.013293
0.007276
0.011012
0.006517
0.007262
0.006537
0.011180
0.009226
0.010753
0.006811
0.010909
0.006774
0.009785
0.009385
0.006970
0.009446
0.006621
0.006896
0.006614
0.009579
0.006406
0.006446
0.009009
0.009145
0.012208
0.012403
0.012548
0.012752
0.007633
0.007825
0.008436
0.009836
0.011822
0.011550
0.007557
0.007717
0.008320
0.010023
0.008515
0.008644
0.011993
0.011743
0.006398
0.012952
0.006375
0.006418
0.013371
0.013545
0.006387
0.013345
0.013615
0.006381
0.006485
0.012870
0.013090
0.006381
0.006473
0.007624
0.007677
0.012002
0.012098
0.008961
0.009009
0.008281
0.008345
0.012684
0.012798
0.006705
0.006716
0.007149
0.007124
0.011395
0.011482
0.006773
0.007150
0.007046
0.007306
0.007219
0.011262
0.011474
0.009934
0.010159
0.006428
0.012139
0.012408
0.009077
0.008892
0.011478
0.011744
0.010661
0.009401
0.009478
0.010661
0.006964
0.010918
0.006616
0.006609
0.006453
0.006495
0.006687
0.006700
0.006607
0.006612
0.006423
0.006439
0.008448
0.008514
0.009136
0.009338
0.007464
0.007338
0.009364
0.009573
0.011127
0.007410
0.009621
0.009893
0.009163
0.009240
0.010935
0.011026
0.008598
0.008429
0.011697
0.011791
0.012358
0.012462
0.006865
0.006832
0.008359
0.008206
0.009605
0.009713
0.008649
0.008823
0.011805
0.012068
0.010115
0.010369
0.008706
0.008804
0.008075
0.007940
0.007562
0.007852
0.007720
0.011149
0.006389
0.006408
0.006429
0.006383
0.012720
0.013006
0.006377
0.006398
0.006397
0.013588
0.013879
0.006540
0.013583
0.008379
0.010776
0.010678
0.011242
0.011124
0.007284
0.007270
0.011889
0.006635
0.007520
0.007452
0.006471
0.006478
0.007893
0.007827
0.006692
0.006692
0.010400
0.010410
0.006541
0.006541
0.012442
0.012718
0.013105
0.013378
0.008799
0.012903
0.013026
0.008083
0.008166
0.011342
0.011006
0.007041
0.010461
0.010585
0.009954
0.007110
0.010202
0.010173
0.007001
0.006409
0.006486
0.009894
0.007461
0.006481
0.006461
0.006860
0.006787
0.007384
0.010564
0.007599
0.008660
0.008419
0.007969
0.010794
0.009976
0.011085
0.009730
0.010247
0.011357
0.010549
0.006536
0.006980
0.006821
0.006597
0.013373
0.012702
0.013016
0.011877
0.009185
0.014042
0.006393
0.006408
0.014341
0.014210
0.006387
0.006391
0.014643
0.011892
0.011514
0.007773
0.008120
0.013322
0.009516
0.011627
0.012215
0.011236
0.009240
0.011829
0.006447
0.013750
0.008782
0.009692
0.010343
0.012514
0.013063
0.009973
0.009092
0.009326
0.012644
0.012150
0.006520
0.007256
0.010129
0.011112
0.012823
0.013505
0.006500
0.006719
0.007474
0.006624
0.010740
0.009778
0.012457
0.006598
0.006740
0.007078
0.007282
0.009389
0.008975
0.006793
0.014173
0.006400
0.006434
0.013875
0.013652
0.006474
0.006387
0.014531
0.013873
0.006428
0.009418
0.006475
0.013590
0.013729
0.006465
0.008441
0.008620
0.008971
0.009104
0.006680
0.012927
0.012728
0.009293
0.009099
0.008914
0.009815
0.009299
0.009491
0.009688
0.007223
0.007336
0.007477
0.007628
0.007557
0.007897
0.012442
0.011862
0.014504
0.006383
0.007352
0.007696
0.007077
0.013663
0.007197
0.007558
0.007167
0.006473
0.006424
0.013937
0.006427
0.013965
0.009592
0.009109
0.007077
0.007399
0.008520
0.008990
0.007237
0.006945
0.011088
0.011330
0.007992
0.008162
0.010066
0.009542
0.010853
0.010369
0.008214
0.008599
0.013518
0.012893
0.012150
0.011568
0.012609
0.012422
0.008707
0.008858
0.011027
0.010877
0.011146
0.010567
0.013256
0.006588
0.006629
0.008346
0.008821
0.011837
0.011254
0.011460
0.010907
0.009793
0.010331
0.012939
0.012329
0.010048
0.010549
0.009940
0.009759
0.010824
0.010619
0.008203
0.008390
0.013205
0.013024
0.006700
0.006740
0.006516
0.006815
0.011774
0.011615
0.006674
0.006850
0.006948
0.006962
0.007780
0.007953
0.006825
0.013621
0.006475
0.013360
0.006530
0.013838
0.013482
0.006444
0.006519
0.011594
0.014107
0.006392
0.006404
0.014764
0.008500
0.008831
0.014169
0.006403
0.009901
0.009543
0.008734
0.009231
0.007653
0.007772
0.011593
0.011401
0.011784
0.012007
0.010507
0.010252
0.006927
0.010193
0.009999
0.007115
0.008187
0.007486
0.012083
0.012710
0.007968
0.008344
0.014359
0.006383
0.012419
0.012109
0.012254
0.006711
0.007395
0.007082
0.007795
0.006840
0.007742
0.013197
0.013119
0.009177
0.008656
0.008243
0.008924
0.010491
0.011459
0.010199
0.011692
0.010736
0.011181
0.006820
0.007600
0.007417
0.007292
0.006886
0.007020
0.013127
0.012624
0.013461
0.013792
0.009605
0.012128
0.006577
0.014563
0.014469
0.006723
0.006508
0.014833
0.014703
0.006726
0.007060
0.006915
0.008014
0.012180
0.007960
0.012093
0.006593
0.010257
0.010744
0.011896
0.013942
0.006964
0.006794
0.011810
0.010689
0.010215
0.013865
0.007677
0.010495
0.006868
0.007582
0.006709
0.010447
0.010031
0.009995
0.011027
0.010965
0.008443
0.008631
0.009304
0.011382
0.013010
0.012722
0.008397
0.008612
0.009314
0.011312
0.009527
0.009508
0.012916
0.012619
0.014467
0.006645
0.006663
0.014112
0.006743
0.006782
0.006503
0.014633
0.014457
0.006561
0.006918
0.008536
0.008551
0.010017
0.010007
0.011023
0.011047
0.009291
0.009288
0.006841
0.012558
0.012504
0.007894
0.007858
0.013748
0.013596
0.006743
0.007843
0.007767
0.007974
0.007901
0.006655
0.012375
0.012260
0.012865
0.012822
0.011012
0.010916
0.006654
0.006801
0.006864
0.014249
0.014168
0.014039
0.013886
0.006744
0.012602
0.012454
0.007454
0.007504
0.009914
0.009971
0.011571
0.011619
0.012878
0.012730
0.010501
0.010477
0.011484
0.011588
0.007120
0.007031
0.007296
0.007154
0.007737
0.007688
0.013147
0.013002
0.007018
0.006815
0.007144
0.006967
0.007538
0.007433
0.007248
0.007173
0.009478
0.009471
0.010480
0.010402
0.010226
0.010158
0.008093
0.008063
0.012073
0.011948
0.010742
0.010655
0.010245
0.010225
0.012089
0.012038
0.010752
0.010726
0.011257
0.011149
0.009353
0.009380
0.011301
0.011269
0.006990
0.006908
0.009115
0.009127
0.009694
0.009656
0.009740
0.009725
0.008836
0.008830
0.013291
0.013217
0.008466
0.008553
0.008530
0.006679
0.006761
0.006833
0.010914
0.006656
0.014341
0.014179
0.006456
0.014844
0.014651
0.006781
0.006807
0.006910
0.012406
0.009384
0.011890
0.011863
0.007399
0.007321
0.007156
0.007550
0.007609
0.008783
0.008774
0.008140
0.008154
0.008355
0.008337
0.013303
0.013449
0.012293
0.012242
0.013552
0.013628
0.009823
0.007916
0.009062
0.009063
0.007423
0.007289
0.013078
0.013025
0.014793
0.014749
0.006580
0.007785
0.008048
0.008008
0.007593
0.007473
0.008239
0.008252
0.007744
0.007644
0.008293
0.008218
0.007203
0.007079
0.011388
0.012904
0.011645
0.011098
0.011930
0.010733
0.009268
0.008943
0.008719
0.009778
0.009525
0.010117
0.010428
0.008295
0.007871
0.008089
0.007674
0.007307
0.007473
0.006685
0.006377
0.006588
0.006403
0.006434
0.012821
0.006389
0.013130
0.006546
0.013263
0.012605
0.012864
0.006411
0.006387
0.012404
0.012673
0.008776
0.008571
0.010930
0.010675
0.008739
0.008954
0.009274
0.009486
0.006733
0.006791
0.006468
0.006476
0.006638
0.006589
0.006524
0.006551
0.008572
0.008368
0.006707
0.006646
0.008316
0.008121
0.011236
0.011552
0.011704
0.011454
0.011226
0.010967
0.010699
0.010441
0.009014
0.009233
0.010099
0.009831
0.009794
0.009562
0.007222
0.007102
0.008074
0.007898
0.007298
0.007433
0.007578
0.007712
0.007101
0.006985
0.006939
0.006844
0.006394
0.006463
0.006400
0.006381
0.006399
0.012877
0.013099
0.013040
0.012545
0.012271
0.006398
0.006390
0.012370
0.012757
0.008822
0.008936
0.011721
0.011607
0.008266
0.008158
0.008678
0.008407
0.007078
0.007225
0.008522
0.008259
0.006512
0.006549
0.006540
0.006539
0.008923
0.008647
0.008683
0.008557
0.006886
0.006922
0.011213
0.011064
0.007265
0.007197
0.007953
0.008040
0.006760
0.006760
0.010830
0.010964
0.007371
0.007438
0.007827
0.007727
0.006593
0.006662
0.008302
0.008054
0.009249
0.009364
0.009754
0.009914
0.009081
0.009218
0.009194
0.008922
0.011424
0.011059
0.007467
0.007292
0.006622
0.006666
0.006928
0.006830
0.006707
0.006775
0.010869
0.011231
0.007426
0.007617
0.008097
0.007860
0.010565
0.010265
0.009484
0.009179
0.010952
0.010595
0.010494
0.010627
0.007704
0.007930
0.007610
0.007538
0.011651
0.011253
0.011284
0.011405
0.010351
0.010046
0.010116
0.010009
0.009490
0.009609
0.009730
0.009420
0.007303
0.007147
0.007034
0.007094
0.012065
0.011894
0.006499
0.006470
0.012896
0.012570
0.012508
0.012362
0.006417
0.006451
0.012155
0.012417
0.006594
0.006616
0.006497
0.012668
0.012786
0.006378
0.006388
0.008500
0.006507
0.006424
0.013211
0.013427
0.013142
0.006419
0.006579
0.013458
0.013028
0.008164
0.008023
0.008362
0.008453
0.012114
0.012233
0.012405
0.012022
0.006823
0.006434
0.013670
0.013290
0.006455
0.006515
0.006486
0.013401
0.007131
0.006969
0.011725
0.012055
0.011504
0.011882
0.007087
0.006960
0.006484
0.006401
0.012727
0.013139
0.010022
0.009691
0.010572
0.010201
0.010309
0.009957
0.006430
0.006396
0.007700
0.007882
0.006413
0.006409
0.006418
0.013469
0.006523
0.007746
0.007559
0.006429
0.006421
0.006685
0.007452
0.007590
0.011726
0.011961
0.006379
0.006422
0.006437
0.006666
0.012178
0.011901
0.012176
0.011769
0.007793
0.007577
0.006400
0.013354
0.006477
0.010792
0.010408
0.006424
0.006438
0.006464
0.006698
0.010239
0.010426
0.006848
0.006750
0.010336
0.010250
0.010014
0.010239
0.006459
0.013427
0.006540
0.006439
0.013782
0.013455
0.011193
0.011415
0.006443
0.012070
0.012392
0.010787
0.009359
0.011626
0.009590
0.009804
0.011020
0.011307
0.010275
0.008753
0.007746
0.008922
0.007533
0.008305
0.008138
0.008504
0.007867
0.007231
0.007322
0.007155
0.006994
0.007060
0.007017
0.006762
0.014353
0.013345
0.006761
0.010746
0.011526
0.011758
0.011026
0.007769
0.008291
0.012671
0.012126
0.007173
0.006796
0.012540
0.011772
0.012051
0.011301
0.010126
0.009442
0.009621
0.009000
0.007919
0.008468
0.007100
0.007559
0.006947
0.007352
0.007103
0.006775
0.013286
0.012564
0.008056
0.008720
0.007237
0.006859
0.008179
0.007593
0.008743
0.009386
0.009810
0.010407
0.012241
0.011597
0.009850
0.009217
0.010925
0.010353
0.009074
0.008471
0.007466
0.008003
0.008794
0.008283
0.007848
0.007372
0.007681
0.007256
0.007001
0.007490
0.006938
0.007038
0.006920
0.012654
0.006705
0.007031
0.006864
0.006883
0.009887
0.009515
0.007043
0.010534
0.010796
0.012659
0.013055
0.012892
0.011939
0.007687
0.007451
0.007668
0.007957
0.009061
0.008788
0.007496
0.008272
0.008205
0.008547
0.008596
0.009475
0.008157
0.007391
0.008406
0.009292
0.007258
0.007968
0.010273
0.011197
0.007971
0.008815
0.007851
0.008680
0.012201
0.011221
0.012372
0.011422
0.012016
0.011042
0.007114
0.006929
0.010729
0.011062
0.010890
0.011422
0.010793
0.011757
0.007218
0.007005
0.007648
0.008444
0.010526
0.011514
0.007566
0.007386
0.007935
0.008221
0.007239
0.006715
0.008806
0.008521
0.010184
0.009750
0.010290
0.010563
0.007266
0.007486
0.009356
0.009050
0.009944
0.010912
0.010094
0.009174
0.009589
0.009280
0.008791
0.009632
0.007131
0.007394
0.007466
0.006844
0.006928
0.007578
0.008157
0.008992
0.007106
0.007861
0.010030
0.010288
0.013385
0.012393
0.006666
0.007157
0.007078
0.014351
0.007348
0.006780
0.007090
0.012343
0.012597
0.006842
0.006680
0.006662
0.006894
0.006978
0.006774
0.008007
0.012327
0.013064
0.013742
0.013580
0.014095
0.013415
0.012900
0.007063
0.006966
0.006793
0.013935
0.009088
0.007009
0.013542
0.014606
0.012423
0.012816
0.008091
0.007804
0.007637
0.006682
0.008099
0.008338
0.013195
0.012161
0.012726
0.013673
0.007426
0.012985
0.006751
0.007113
0.008664
0.008377
0.006633
0.007004
0.013047
0.013295
0.010046
0.010042
0.007195
0.007811
0.007273
0.010567
0.011272
0.007092
0.007817
0.007555
0.011834
0.012164
0.006726
0.012660
0.011641
0.007053
0.007721
0.012368
0.012101
0.011874
0.006973
0.007146
0.009185
0.008218
0.011637
0.011233
0.010545
0.013370
0.006909
0.007020
0.009617
0.010343
0.007029
0.012383
0.011867
0.009837
0.008949
0.007008
0.010661
0.010035
0.007021
0.011934
0.011572
0.013070
0.014042
0.007001
0.013152
0.013793
0.014168
0.011033
0.011290
0.009734
0.010585
0.010386
0.009427
0.006831
0.010146
0.010926
0.013506
0.013720
0.006971
0.013621
0.014007
0.013252
0.013615
0.006987
0.013394
0.006702
0.013854
0.006908
0.006839
0.012871
0.014497
0.013123
0.012570
0.010790
0.011978
0.011110
0.011394
0.011698
0.008287
0.009353
0.009538
0.008082
0.008961
0.009174
0.007714
0.007272
0.007028
0.007134
0.006646
0.006871
0.014809
0.014574
0.014286
0.014163
0.014045
0.013929
0.007066
0.007255
0.011255
0.011319
0.008738
0.008682
0.007530
0.007347
0.011715
0.011786
0.006780
0.007036
0.008986
0.008948
0.006957
0.007194
0.013497
0.013376
0.011987
0.012060
0.010143
0.010117
0.010471
0.010786
0.010434
0.010738
0.011043
0.011102
0.009382
0.009394
0.007952
0.008069
0.009169
0.009193
0.007738
0.007895
0.007582
0.007726
0.006794
0.006620
0.006789
0.014811
0.014334
0.014129
0.014425
0.014506
0.014553
0.014315
0.006584
0.006992
0.014825
0.014944
0.014116
0.013744
0.013430
0.007031
0.006899
0.007009
0.007149
0.007156
0.007259
0.007954
0.008011
0.013072
0.012897
0.007573
0.007604
0.009647
0.009645
0.010310
0.010318
0.010635
0.010619
0.007328
0.007556
0.008846
0.008875
0.007657
0.007449
0.009640
0.009630
0.010137
0.010089
0.010315
0.010256
0.010588
0.010515
0.008953
0.008914
0.008812
0.008759
0.007017
0.007290
0.012611
0.012489
0.010932
0.010956
0.007405
0.007304
0.007779
0.007842
0.008611
0.008538
0.008602
0.008615
0.009270
0.009282
0.010019
0.010016
0.008026
0.008157
0.008148
0.008195
0.012073
0.012104
0.010784
0.010871
0.008435
0.008341
0.011210
0.011240
0.008410
0.008376
0.011839
0.011877
0.012370
0.012323
0.007164
0.007417
0.009902
0.009874
0.011065
0.011168
0.007790
0.007600
0.009098
0.009123
0.011436
0.011520
0.011554
0.011514
0.006692
0.006895
0.013513
0.013571
0.014305
0.014251
0.006673
0.007054
0.013906
0.013964
0.014871
0.015047
0.006883
0.007120
0.006871
0.007184
0.006957
0.006685
0.013801
0.013689
0.006516
0.006958
0.006874
0.006752
0.006704
0.006808
0.013850
0.014027
0.009832
0.014659
0.014498
0.014977
0.014972
0.007457
0.014681
0.014739
0.014794
0.015043