# vtk DataFile Version 2.0
Unstructured Grid Example
ASCII
DATASET UNSTRUCTURED_GRID
POINTS 2674 float
0.042133 0.447372 -0.019069 
0.546804 -0.047956 -0.008876 
0.051476 -0.552628 -0.003342 
-0.453196 -0.057299 -0.013536 
0.023492 0.510280 3.980931 
0.528163 0.014951 3.991124 
0.032834 -0.489720 3.996658 
-0.471837 0.005609 3.986464 
0.043301 0.322372 -0.017103 
0.421804 -0.049124 -0.009458 
0.050308 -0.427628 -0.005308 
-0.328196 -0.056131 -0.012953 
0.024660 0.385280 3.982897 
0.403163 0.013783 3.990542 
0.031666 -0.364720 3.994692 
-0.346837 0.006777 3.987047 
0.121127 0.501584 3.981537 
0.215189 0.474007 3.982421 
0.302064 0.428610 3.983551 
0.378413 0.367136 3.984882 
0.441303 0.291949 3.986363 
0.488315 0.205937 3.987938 
0.517644 0.112407 3.989546 
0.519467 -0.082684 3.992614 
0.491890 -0.176746 3.993956 
0.446493 -0.263621 3.995100 
0.385019 -0.339970 3.996002 
0.309832 -0.402860 3.996627 
0.223820 -0.449872 3.996951 
0.130289 -0.479201 3.996961 
-0.064801 -0.481024 3.996052 
-0.158863 -0.453447 3.995167 
-0.245738 -0.408050 3.994038 
-0.322088 -0.346576 3.992707 
-0.384977 -0.271389 3.991225 
-0.431989 -0.185377 3.989651 
-0.461318 -0.091846 3.988043 
-0.463141 0.103244 3.984975 
-0.435564 0.197306 3.983632 
-0.390167 0.284181 3.982488 
-0.328693 0.360531 3.981586 
-0.253506 0.423420 3.980961 
-0.167494 0.470432 3.980638 
-0.073964 0.499761 3.980627 
-0.444499 0.040336 -0.015025 
-0.416923 0.134399 -0.016368 
-0.371525 0.221274 -0.017512 
-0.310052 0.297623 -0.018414 
-0.234865 0.360512 -0.019039 
-0.148853 0.407525 -0.019362 
-0.055322 0.436854 -0.019373 
0.139768 0.438676 -0.018463 
0.233831 0.411100 -0.017579 
0.320706 0.365702 -0.016449 
0.397055 0.304229 -0.015118 
0.459944 0.229041 -0.013637 
0.506957 0.143030 -0.012062 
0.536286 0.049499 -0.010454 
0.538108 -0.145591 -0.007386 
0.510532 -0.239654 -0.006044 
0.465134 -0.326529 -0.004900 
0.403661 -0.402878 -0.003998 
0.328473 -0.465767 -0.003373 
0.242462 -0.512780 -0.003049 
0.148931 -0.542109 -0.003039 
-0.046159 -0.543931 -0.003948 
-0.140222 -0.516355 -0.004833 
-0.227097 -0.470957 -0.005962 
-0.303446 -0.409484 -0.007293 
-0.366335 -0.334297 -0.008775 
-0.413348 -0.248285 -0.010349 
-0.442677 -0.154754 -0.011957 
0.041667 0.448945 0.080931 
0.041201 0.450518 0.180931 
0.040735 0.452091 0.280931 
0.040269 0.453663 0.380931 
0.039803 0.455236 0.480931 
0.039337 0.456809 0.580931 
0.038871 0.458381 0.680931 
0.038405 0.459954 0.780931 
0.037939 0.461527 0.880931 
0.037473 0.463099 0.980931 
0.037007 0.464672 1.080931 
0.036541 0.466245 1.180931 
0.036075 0.467817 1.280931 
0.035609 0.469390 1.380931 
0.035143 0.470963 1.480931 
0.034677 0.472536 1.580931 
0.034211 0.474108 1.680931 
0.033745 0.475681 1.780931 
0.033279 0.477254 1.880931 
0.032813 0.478826 1.980931 
0.032347 0.480399 2.080931 
0.031880 0.481972 2.180931 
0.031414 0.483544 2.280931 
0.030948 0.485117 2.380931 
0.030482 0.486690 2.480931 
0.030016 0.488262 2.580931 
0.029550 0.489835 2.680931 
0.029084 0.491408 2.780931 
0.028618 0.492980 2.880931 
0.028152 0.494553 2.980931 
0.027686 0.496126 3.080931 
0.027220 0.497699 3.180931 
0.026754 0.499271 3.280931 
0.026288 0.500844 3.380931 
0.025822 0.502417 3.480931 
0.025356 0.503989 3.580931 
0.024890 0.505562 3.680931 
0.024424 0.507135 3.780931 
0.023958 0.508707 3.880931 
-0.453662 -0.055726 0.086464 
-0.454128 -0.054153 0.186464 
-0.454594 -0.052581 0.286464 
-0.455060 -0.051008 0.386464 
-0.455526 -0.049435 0.486464 
-0.455992 -0.047862 0.586464 
-0.456458 -0.046290 0.686464 
-0.456924 -0.044717 0.786464 
-0.457390 -0.043144 0.886464 
-0.457856 -0.041572 0.986464 
-0.458322 -0.039999 1.086464 
-0.458788 -0.038426 1.186464 
-0.459254 -0.036854 1.286464 
-0.459720 -0.035281 1.386464 
-0.460186 -0.033708 1.486464 
-0.460652 -0.032136 1.586464 
-0.461118 -0.030563 1.686464 
-0.461584 -0.028990 1.786464 
-0.462050 -0.027418 1.886464 
-0.462516 -0.025845 1.986464 
-0.462982 -0.024272 2.086464 
-0.463448 -0.022699 2.186464 
-0.463914 -0.021127 2.286464 
-0.464380 -0.019554 2.386464 
-0.464847 -0.017981 2.486464 
-0.465313 -0.016409 2.586464 
-0.465779 -0.014836 2.686464 
-0.466245 -0.013263 2.786464 
-0.466711 -0.011691 2.886464 
-0.467177 -0.010118 2.986464 
-0.467643 -0.008545 3.086464 
-0.468109 -0.006973 3.186464 
-0.468575 -0.005400 3.286464 
-0.469041 -0.003827 3.386464 
-0.469507 -0.002254 3.486464 
-0.469973 -0.000682 3.586464 
-0.470439 0.000891 3.686464 
-0.470905 0.002464 3.786464 
-0.471371 0.004036 3.886464 
0.051010 -0.551055 0.096658 
0.050543 -0.549482 0.196658 
0.050077 -0.547909 0.296658 
0.049611 -0.546337 0.396658 
0.049145 -0.544764 0.496658 
0.048679 -0.543191 0.596658 
0.048213 -0.541619 0.696658 
0.047747 -0.540046 0.796658 
0.047281 -0.538473 0.896658 
0.046815 -0.536901 0.996658 
0.046349 -0.535328 1.096658 
0.045883 -0.533755 1.196658 
0.045417 -0.532183 1.296658 
0.044951 -0.530610 1.396658 
0.044485 -0.529037 1.496658 
0.044019 -0.527464 1.596658 
0.043553 -0.525892 1.696658 
0.043087 -0.524319 1.796658 
0.042621 -0.522746 1.896658 
0.042155 -0.521174 1.996658 
0.041689 -0.519601 2.096658 
0.041223 -0.518028 2.196658 
0.040757 -0.516456 2.296658 
0.040291 -0.514883 2.396658 
0.039825 -0.513310 2.496658 
0.039359 -0.511738 2.596658 
0.038892 -0.510165 2.696658 
0.038426 -0.508592 2.796658 
0.037960 -0.507020 2.896658 
0.037494 -0.505447 2.996658 
0.037028 -0.503874 3.096658 
0.036562 -0.502301 3.196658 
0.036096 -0.500729 3.296658 
0.035630 -0.499156 3.396658 
0.035164 -0.497583 3.496658 
0.034698 -0.496011 3.596658 
0.034232 -0.494438 3.696658 
0.033766 -0.492865 3.796658 
0.033300 -0.491293 3.896658 
0.546338 -0.046384 0.091124 
0.545872 -0.044811 0.191124 
0.545406 -0.043238 0.291124 
0.544940 -0.041666 0.391124 
0.544474 -0.040093 0.491124 
0.544008 -0.038520 0.591124 
0.543542 -0.036948 0.691124 
0.543076 -0.035375 0.791124 
0.542610 -0.033802 0.891124 
0.542144 -0.032230 0.991124 
0.541678 -0.030657 1.091124 
0.541212 -0.029084 1.191124 
0.540746 -0.027511 1.291124 
0.540280 -0.025939 1.391124 
0.539814 -0.024366 1.491124 
0.539348 -0.022793 1.591124 
0.538882 -0.021221 1.691124 
0.538416 -0.019648 1.791124 
0.537950 -0.018075 1.891124 
0.537484 -0.016503 1.991124 
0.537018 -0.014930 2.091124 
0.536552 -0.013357 2.191124 
0.536086 -0.011785 2.291124 
0.535620 -0.010212 2.391124 
0.535153 -0.008639 2.491124 
0.534687 -0.007066 2.591124 
0.534221 -0.005494 2.691124 
0.533755 -0.003921 2.791124 
0.533289 -0.002348 2.891124 
0.532823 -0.000776 2.991124 
0.532357 0.000797 3.091124 
0.531891 0.002370 3.191124 
0.531425 0.003942 3.291124 
0.530959 0.005515 3.391124 
0.530493 0.007088 3.491124 
0.530027 0.008660 3.591124 
0.529561 0.010233 3.691124 
0.529095 0.011806 3.791124 
0.528629 0.013378 3.891124 
-0.316324 0.041046 -0.014420 
-0.279707 0.131839 -0.015668 
-0.220838 0.210060 -0.016612 
-0.143730 0.270380 -0.017187 
-0.053637 0.308688 -0.017355 
0.140478 0.310501 -0.016450 
0.231270 0.273884 -0.015439 
0.309492 0.215015 -0.014140 
0.369812 0.137906 -0.012641 
0.408120 0.047814 -0.011044 
0.147246 -0.413943 -0.005057 
0.237338 -0.375635 -0.005224 
0.314447 -0.315315 -0.005800 
0.373316 -0.237094 -0.006743 
0.409933 -0.146301 -0.007991 
-0.046869 -0.415756 -0.005961 
-0.137662 -0.379139 -0.006972 
-0.215883 -0.320270 -0.008271 
-0.276203 -0.243161 -0.009770 
-0.314511 -0.153069 -0.011367 
-0.334966 0.103953 3.985580 
-0.298348 0.194746 3.984332 
-0.239479 0.272968 3.983388 
-0.162371 0.333288 3.982813 
-0.072278 0.371596 3.982645 
0.389478 0.110721 3.988956 
0.351171 0.200814 3.987359 
0.290851 0.277922 3.985860 
0.212629 0.336791 3.984561 
0.121836 0.373409 3.983550 
0.128604 -0.351035 3.994943 
0.218697 -0.312728 3.994776 
0.295805 -0.252408 3.994200 
0.354674 -0.174186 3.993257 
0.391292 -0.083393 3.992009 
-0.065510 -0.352849 3.994039 
-0.156303 -0.316231 3.993028 
-0.234525 -0.257362 3.991729 
-0.294845 -0.180254 3.990230 
-0.333153 -0.090161 3.988633 
0.025126 0.383707 3.882897 
0.025592 0.382135 3.782897 
0.026058 0.380562 3.682897 
0.026524 0.378989 3.582897 
0.026990 0.377417 3.482897 
0.027456 0.375844 3.382897 
0.027922 0.374271 3.282897 
0.028388 0.372699 3.182897 
0.028854 0.371126 3.082897 
0.029320 0.369553 2.982897 
0.029786 0.367980 2.882897 
0.030252 0.366408 2.782897 
0.030718 0.364835 2.682897 
0.031184 0.363262 2.582897 
0.031650 0.361690 2.482897 
0.032116 0.360117 2.382897 
0.032582 0.358544 2.282897 
0.033048 0.356972 2.182897 
0.033514 0.355399 2.082897 
0.033980 0.353826 1.982897 
0.034446 0.352254 1.882897 
0.034912 0.350681 1.782897 
0.035378 0.349108 1.682897 
0.035844 0.347536 1.582897 
0.036311 0.345963 1.482897 
0.036777 0.344390 1.382897 
0.037243 0.342817 1.282897 
0.037709 0.341245 1.182897 
0.038175 0.339672 1.082897 
0.038641 0.338099 0.982897 
0.039107 0.336527 0.882897 
0.039573 0.334954 0.782897 
0.040039 0.333381 0.682897 
0.040505 0.331809 0.582897 
0.040971 0.330236 0.482897 
0.041437 0.328663 0.382897 
0.041903 0.327091 0.282897 
0.042369 0.325518 0.182897 
0.042835 0.323945 0.082897 
0.421338 -0.047552 0.090542 
0.420872 -0.045979 0.190542 
0.420406 -0.044406 0.290542 
0.419940 -0.042833 0.390542 
0.419474 -0.041261 0.490542 
0.419008 -0.039688 0.590542 
0.418542 -0.038115 0.690542 
0.418076 -0.036543 0.790542 
0.417610 -0.034970 0.890542 
0.417144 -0.033397 0.990542 
0.416678 -0.031825 1.090542 
0.416212 -0.030252 1.190542 
0.415746 -0.028679 1.290542 
0.415280 -0.027107 1.390542 
0.414814 -0.025534 1.490542 
0.414348 -0.023961 1.590542 
0.413882 -0.022388 1.690542 
0.413416 -0.020816 1.790542 
0.412950 -0.019243 1.890542 
0.412484 -0.017670 1.990542 
0.412018 -0.016098 2.090542 
0.411552 -0.014525 2.190542 
0.411086 -0.012952 2.290542 
0.410620 -0.011380 2.390542 
0.410153 -0.009807 2.490542 
0.409687 -0.008234 2.590542 
0.409221 -0.006662 2.690542 
0.408755 -0.005089 2.790542 
0.408289 -0.003516 2.890542 
0.407823 -0.001943 2.990542 
0.407357 -0.000371 3.090542 
0.406891 0.001202 3.190542 
0.406425 0.002775 3.290542 
0.405959 0.004347 3.390542 
[...]
POINT_DATA 2674
SCALARS u float 1
LOOKUP_TABLE default
0.014156
0.013658
0.014890
0.015197
0.006457
0.006688
0.006985
0.006415
0.014198
0.013842
0.014750
0.014997
0.006410
0.006617
0.006812
0.006411
0.006460
0.006464
0.006472
0.006488
0.006517
0.006560
0.006618
0.006764
0.006842
0.006913
0.006972
0.007012
0.007028
0.007019
0.006928
0.006853
0.006767
0.006677
0.006591
0.006515
0.006456
0.006392
0.006387
0.006394
0.006408
0.006425
0.006440
0.006451
0.015127
0.015035
0.014923
0.014793
0.014646
0.014488
0.014323
0.013996
0.013851
0.013728
0.013635
0.013579
0.013564
0.013590
0.013763
0.013899
0.014057
0.014230
0.014407
0.014581
0.014744
0.015016
0.015117
0.015194
0.015244
0.015269
0.015269
0.015245
0.013862
0.013569
0.013278
0.012989
0.012702
0.012417
0.012135
0.011855
0.011578
0.011303
0.011032
0.010765
0.010501
0.010240
0.009985
0.009733
0.009487
0.009246
0.009010
0.008781
0.008559
0.008343
0.008136
0.007937
0.007747
0.007567
0.007397
0.007238
0.007092
0.006958
0.006838
0.006731
0.006640
0.006564
0.006504
0.006461
0.006434
0.006425
0.006432
0.014897
0.014599
0.014301
0.014006
0.013712
0.013419
0.013129
0.012840
0.012554
0.012270
0.011988
0.011709
0.011433
0.011160
0.010890
0.010623
0.010360
0.010102
0.009847
0.009598
0.009353
0.009114
0.008881
0.008654
0.008434
0.008222
0.008017
0.007822
0.007636
0.007460
0.007294
0.007141
0.006999
0.006871
0.006756
0.006657
0.006572
0.006503
0.006450
0.014598
0.014308
0.014020
0.013733
0.013449
0.013167
0.012887
0.012610
0.012335
0.012063
0.011795
0.011529
0.011267
0.011009
0.010755
0.010505
0.010260
0.010020
0.009785
0.009556
0.009333
0.009116
0.008907
0.008705
0.008511
0.008326
0.008150
0.007985
0.007829
0.007685
0.007553
0.007433
0.007326
0.007233
0.007154
0.007089
0.007040
0.007006
0.006987
0.013369
0.013081
0.012795
0.012512
0.012231
0.011953
0.011677
0.011405
0.011135
0.010869
0.010607
0.010349
0.010095
0.009845
0.009601
0.009361
0.009128
0.008901
0.008681
0.008467
0.008262
0.008065
0.007877
0.007699
0.007531
0.007374
0.007229
0.007097
0.006977
0.006872
0.006781
0.006706
0.006646
0.006602
0.006575
0.006564
0.006570
0.006593
0.006632
0.014919
0.014812
0.014679
0.014526
0.014362
0.014044
0.013915
0.013823
0.013777
0.013784
0.014598
0.014429
0.014255
0.014090
0.013948
0.014876
0.014971
0.015031
0.015055
0.015043
0.006384
0.006375
0.006379
0.006388
0.006399
0.006552
0.006499
0.006461
0.006436
0.006421
0.006840
0.006838
0.006808
0.006755
0.006688
0.006758
0.006685
0.006604
0.006525
0.006459
0.006388
0.006384
0.006397
0.006428
0.006475
0.006538
0.006618
0.006713
0.006822
0.006946
0.007084
0.007233
0.007395
0.007568
0.007751
0.007943
0.008145
0.008355
0.008572
0.008797
0.009028
0.009266
0.009509
0.009757
0.010010
0.010267
0.010529
0.010794
0.011063
0.011336
0.011611
0.011889
0.012170
0.012453
0.012739
0.013027
0.013317
0.013609
0.013902
0.013551
0.013262
0.012974
0.012689
0.012406
0.012126
0.011848
0.011573
0.011301
0.011032
0.010767
0.010505
0.010248
0.009995
0.009746
0.009503
0.009265
0.009033
0.008807
0.008589
0.008377
0.008174
0.007979
0.007793
0.007618
0.007453
0.007299
0.007157
0.007029
0.006913
0.006812
0.006726
0.006655
0.006600
0.006561
0.006539
0.006533
0.006545
0.006573
0.006812
0.006827
0.006859
0.006907
0.006970
0.007048
0.007140
0.007247
0.007367
0.007499
0.007644
0.007800
0.007967
0.008144
0.008330
0.008525
0.008729
0.008940
0.009158
0.009383
0.009614
0.009851
0.010093
0.010340
0.010592
0.010847
0.011107
0.011371
0.011638
0.011909
0.012182
0.012458
0.012737
0.013018
0.013302
0.013588
0.013875
0.014165
0.014457
0.014698
0.014401
0.014105
0.013810
0.013517
0.013226
0.012937
0.012651
0.012366
0.012084
0.011804
0.011527
0.011253
0.010982
0.010714
0.010451
0.010191
0.009935
0.009684
0.009438
0.009197
0.008962
0.008734
0.008512
0.008297
0.008091
0.007892
0.007703
0.007524
0.007356
0.007198
0.007053
0.006921
0.006802
0.006698
0.006608
0.006535
0.006477
0.006436
0.007392
0.008545
0.007733
0.007915
0.008092
0.009734
0.010751
0.011000
0.010243
0.006770
0.006951
0.007047
0.007148
0.006804
0.006865
0.012100
0.011835
0.013167
0.012374
0.012636
0.013685
0.011288
0.006692
0.013742
0.014227
0.006828
0.006821
0.006695
0.013466
0.013793
0.009838
0.010317
0.007024
0.006761
0.008970
0.010046
0.010688
0.007502
0.007175
0.006959
0.006714
0.011175
0.010522
0.008514
0.007302
0.007000
0.008705
0.010491
0.009021
0.007645
0.011994
0.007305
0.007181
0.008275
0.010966
0.006883
0.009486
0.012478
0.007434
0.007031
0.008445
0.008116
0.009234
0.008718
0.012908
0.007088
0.006809
0.013402
0.006779
0.013438
0.013761
0.014015
0.006807
0.006733
0.006780
0.006835
0.006628
0.013466
0.014143
0.009317
0.013145
0.013780
0.006847
0.006648
0.013436
0.013156
0.007253
0.006815
0.006750
0.012335
0.012650
0.006770
0.006882
0.012952
0.013168
0.006966
0.007120
0.007543
0.007442
0.006906
0.006677
0.010504
0.010263
0.006851
0.006707
0.008975
0.008745
0.009431
0.009891
0.010092
0.010736
0.007747
0.007232
0.007221
0.006800
0.008500
0.007911
0.008726
0.008499
0.009124
0.008484
0.008934
0.008312
0.009680
0.010029
0.011497
0.011858
0.006946
0.006619
0.012146
0.012806
0.012129
0.012317
0.011107
0.011708
0.010519
0.010759
0.011625
0.012253
0.011305
0.011988
0.009878
0.010560
0.011842
0.012564
0.010269
0.010948
0.010511
0.011206
0.010771
0.011414
0.009677
0.010321
0.007773
0.007510
0.011279
0.011529
0.009316
0.009604
0.007619
0.007114
0.012665
0.012994
0.007012
0.006656
0.008717
0.008112
0.007225
0.007064
0.006954
0.006797
0.011872
0.012155
0.008505
0.008364
0.007321
0.006871
0.007448
0.007281
0.007950
0.007668
0.009985
0.010230
0.008346
0.007751
0.007121
0.006727
0.008160
0.007656
0.007835
0.007361
0.007029
0.006882
0.006883
0.006609
0.008258
0.012872
0.013611
0.013704
0.014439
0.013961
0.007131
0.007362
0.011545
0.010966
0.011298
0.006830
0.008930
0.010276
0.010738
0.010505
0.010732
0.010992
0.012517
0.013209
0.012925
0.006852
0.006586
0.006816
0.006719
0.009963
0.009540
0.008224
0.007903
0.007599
0.008731
0.009528
0.009747
0.007782
0.008065
0.012916
0.012410
0.008256
0.008091
0.009010
0.009195
0.009450
0.010097
0.007977
0.007482
0.009826
0.009213
0.009399
0.009171
0.008962
0.009647
0.006619
0.006826
0.008813
0.009477
0.006907
0.008192
0.007196
0.007728
0.007964
0.007361
0.009412
0.009144
0.009727
0.010508
0.006385
0.006405
0.006569
0.006788
0.006500
0.006442
0.011632
0.012215
0.012561
0.013219
0.008582
0.010914
0.006391
0.006435
0.006402
0.013487
0.013700
0.006482
0.013146
0.013293
0.007276
0.011012
0.006517
0.007262
0.006537
0.011180
0.009226
0.010753
0.006811
0.010909
0.006774
0.009785
0.009385
0.006970
0.009446
0.006621
0.006896
0.006614
0.009579
0.006406
0.006446
0.009009
0.009145
0.012208
0.012403
0.012548
0.012752
0.007633
0.007825
0.008436
0.009836
0.011822
0.011550
0.007557
0.007717
0.008320
0.010023
0.008515
0.008644
0.011993
0.011743
0.006398
0.012952
0.006375
0.006418
0.013371
0.013545
0.006387
0.013345
0.013615
0.006381
0.006485
0.012870
0.013090
0.006381
0.006473
0.007624
0.007677
0.012002
0.012098
0.008961
0.009009
0.008281
0.008345
0.012684
0.012798
0.006705
0.006716
0.007149
0.007124
0.011395
0.011482
0.006773
0.007150
0.007046
0.007306
0.007219
0.011262
0.011474
0.009934
0.010159
0.006428
0.012139
0.012408
0.009077
0.008892
0.011478
0.011744
0.010661
0.009401
0.009478
0.010661
0.006964
0.010918
0.006616
0.006609
0.006453
0.006495
0.006687
0.006700
0.006607
0.006612
0.006423
0.006439
0.008448
0.008514
0.009136
0.009338
0.007464
0.007338
0.009364
0.009573
0.011127
0.007410
0.009621
0.009893
0.009163
0.009240
0.010935
0.011026
0.008598
0.008429
0.011697
0.011791
0.012358
0.012462
0.006865
0.006832
0.008359
0.008206
0.009605
0.009713
0.008649
0.008823
0.011805
0.012068
0.010115
0.010369
0.008706
0.008804
0.008075
0.007940
0.007562
0.007852
0.007720
0.011149
0.006389
0.006408
0.006429
0.006383
0.012720
0.013006
0.006377
0.006398
0.006397
0.013588
0.013879
0.006540
0.013583
0.008379
0.010776
0.010678
0.011242
0.011124
0.007284
0.007270
0.011889
0.006635
0.007520
0.007452
0.006471
0.006478
0.007893
0.007827
0.006692
0.006692
0.010400
0.010410
0.006541
0.006541
0.012442
0.012718
0.013105
0.013378
0.008799
0.012903
0.013026
0.008083
0.008166
0.011342
0.011006
0.007041
0.010461
0.010585
0.009954
0.007110
0.010202
0.010173
0.007001
0.006409
0.006486
0.009894
0.007461
0.006481
0.006461
0.006860
0.006787
0.007384
0.010564
0.007599
0.008660
0.008419
0.007969
0.010794
0.009976
0.011085
0.009730
0.010247
0.011357
0.010549
0.006536
0.006980
0.006821
0.006597
0.013373
0.012702
0.013016
0.011877
0.009185
0.014042
0.006393
0.006408
0.014341
0.014210
0.006387
0.006391
0.014643
0.011892
0.011514
0.007773
0.008120
0.013322
0.009516
0.011627
0.012215
0.011236
0.009240
0.011829
0.006447
0.013750
0.008782
0.009692
0.010343
0.012514
0.013063
0.009973
0.009092
0.009326
0.012644
0.012150
0.006520
0.007256
0.010129
0.011112
0.012823
0.013505
0.006500
0.006719
0.007474
0.006624
0.010740
0.009778
0.012457
0.006598
0.006740
0.007078
0.007282
0.009389
0.008975
0.006793
0.014173
0.006400
0.006434
0.013875
0.013652
0.006474
0.006387
0.014531
0.013873
0.006428
0.009418
0.006475
0.013590
0.013729
0.006465
0.008441
0.008620
0.008971
0.009104
0.006680
0.012927
0.012728
0.009293
0.009099
0.008914
0.009815
0.009299
0.009491
0.009688
0.007223
0.007336
0.007477
0.007628
0.007557
0.007897
0.012442
0.011862
0.014504
0.006383
0.007352
0.007696
0.007077
0.013663
0.007197
0.007558
0.007167
0.006473
0.006424
0.013937
0.006427
0.013965
0.009592
0.009109
0.007077
0.007399
0.008520
0.008990
0.007237
0.006945
0.011088
0.011330
0.007992
0.008162
0.010066
0.009542
0.010853
0.010369
0.008214
0.008599
0.013518
0.012893
0.012150
0.011568
0.012609
0.012422
0.008707
0.008858
0.011027
0.010877
0.011146
0.010567
0.013256
0.006588
0.006629
0.008346
0.008821
0.011837
0.011254
0.011460
0.010907
0.009793
0.010331
0.012939
0.012329
0.010048
0.010549
0.009940
0.009759
0.010824
0.010619
0.008203
0.008390
0.013205
0.013024
0.006700
0.006740
0.006516
0.006815
0.011774
0.011615
0.006674
0.006850
0.006948
0.006962
0.007780
0.007953
0.006825
0.013621
0.006475
0.013360
0.006530
0.013838
0.013482
0.006444
0.006519
0.011594
0.014107
0.006392
0.006404
0.014764
0.008500
0.008831
0.014169
0.006403
0.009901
0.009543
0.008734
0.009231
0.007653
0.007772
0.011593
0.011401
0.011784
0.012007
0.010507
0.010252
0.006927
0.010193
0.009999
0.007115
0.008187
0.007486
0.012083
0.012710
0.007968
0.008344
0.014359
0.006383
0.012419
0.012109
0.012254
0.006711
0.007395
0.007082
0.007795
0.006840
0.007742
0.013197
0.013119
0.009177
0.008656
0.008243
0.008924
0.010491
0.011459
0.010199
0.011692
0.010736
0.011181
0.006820
0.007600
0.007417
0.007292
0.006886
0.007020
0.013127
0.012624
0.013461
0.013792
0.009605
0.012128
0.006577
0.014563
0.014469
0.006723
0.006508
0.014833
0.014703
0.006726
0.007060
0.006915
0.008014
0.012180
0.007960
0.012093
0.006593
0.010257
0.010744
0.011896
0.013942
0.006964
0.006794
0.011810
0.010689
0.010215
0.013865
0.007677
0.010495
0.006868
0.007582
0.006709
0.010447
0.010031
0.009995
0.011027
0.010965
0.008443
0.008631
0.009304
0.011382
0.013010
0.012722
0.008397
0.008612
0.009314
0.011312
0.009527
0.009508
0.012916
0.012619
0.014467
0.006645
0.006663
0.014112
0.006743
0.006782
0.006503
0.014633
0.014457
0.006561
0.006918
0.008536
0.008551
0.010017
0.010007
0.011023
0.011047
0.009291
0.009288
0.006841
0.012558
0.012504
0.007894
0.007858
0.013748
0.013596
0.006743
0.007843
0.007767
0.007974
0.007901
0.006655
0.012375
0.012260
0.012865
0.012822
0.011012
0.010916
0.006654
0.006801
0.006864
0.014249
0.014168
0.014039
0.013886
0.006744
0.012602
0.012454
0.007454
0.007504
0.009914
0.009971
0.011571
0.011619
0.012878
0.012730
0.010501
0.010477
0.011484
0.011588
0.007120
0.007031
0.007296
0.007154
0.007737
0.007688
0.013147
0.013002
0.007018
0.006815
0.007144
0.006967
0.007538
0.007433
0.007248
0.007173
0.009478
0.009471
0.010480
0.010402
0.010226
0.010158
0.008093
0.008063
0.012073
0.011948
0.010742
0.010655
0.010245
0.010225
0.012089
0.012038
0.010752
0.010726
0.011257
0.011149
0.009353
0.009380
0.011301
0.011269
0.006990
0.006908
0.009115
0.009127
0.009694
0.009656
0.009740
0.009725
0.008836
0.008830
0.013291
0.013217
0.008466
0.008553
0.008530
0.006679
0.006761
0.006833
0.010914
0.006656
0.014341
0.014179
0.006456
0.014844
0.014651
0.006781
0.006807
0.006910
0.012406
0.009384
0.011890
0.011863
0.007399
0.007321
0.007156
0.007550
0.007609
0.008783
0.008774
0.008140
0.008154
0.008355
0.008337
0.013303
0.013449
0.012293
0.012242
0.013552
0.013628
0.009823
0.007916
0.009062
0.009063
0.007423
0.007289
0.013078
0.013025
0.014793
0.014749
0.006580
0.007785
0.008048
0.008008
0.007593
0.007473
0.008239
0.008252
0.007744
0.007644
0.008293
0.008218
0.007203
0.007079
0.011388
0.012904
0.011645
0.011098
0.011930
0.010733
0.009268
0.008943
0.008719
0.009778
0.009525
0.010117
0.010428
0.008295
0.007871
0.008089
0.007674
0.007307
0.007473
0.006685
0.006377
0.006588
0.006403
0.006434
0.012821
0.006389
0.013130
0.006546
0.013263
0.012605
0.012864
0.006411
0.006387
0.012404
0.012673
0.008776
0.008571
0.010930
0.010675
0.008739
0.008954
0.009274
0.009486
0.006733
0.006791
0.006468
0.006476
0.006638
0.006589
0.006524
0.006551
0.008572
0.008368
0.006707
0.006646
0.008316
0.008121
0.011236
0.011552
0.011704
0.011454
0.011226
0.010967
0.010699
0.010441
0.009014
0.009233
0.010099
0.009831
0.009794
0.009562
0.007222
0.007102
0.008074
0.007898
0.007298
0.007433
0.007578
0.007712
0.007101
0.006985
0.006939
0.006844
0.006394
0.006463
0.006400
0.006381
0.006399
0.012877
0.013099
0.013040
0.012545
0.012271
0.006398
0.006390
0.012370
0.012757
0.008822
0.008936
0.011721
0.011607
0.008266
0.008158
0.008678
0.008407
0.007078
0.007225
0.008522
0.008259
0.006512
0.006549
0.006540
0.006539
0.008923
0.008647
0.008683
0.008557
0.006886
0.006922
0.011213
0.011064
0.007265
0.007197
0.007953
0.008040
0.006760
0.006760
0.010830
0.010964
0.007371
0.007438
0.007827
0.007727
0.006593
0.006662
0.008302
0.008054
0.009249
0.009364
0.009754
0.009914
0.009081
0.009218
0.009194
0.008922
0.011424
0.011059
0.007467
0.007292
0.006622
0.006666
0.006928
0.006830
0.006707
0.006775
0.010869
0.011231
0.007426
0.007617
0.008097
0.007860
0.010565
0.010265
0.009484
0.009179
0.010952
0.010595
0.010494
0.010627
0.007704
0.007930
0.007610
0.007538
0.011651
0.011253
0.011284
0.011405
0.010351
0.010046
0.010116
0.010009
0.009490
0.009609
0.009730
0.009420
0.007303
0.007147
0.007034
0.007094
0.012065
0.011894
0.006499
0.006470
0.012896
0.012570
0.012508
0.012362
0.006417
0.006451
0.012155
0.012417
0.006594
0.006616
0.006497
0.012668
0.012786
0.006378
0.006388
0.008500
0.006507
0.006424
0.013211
0.013427
0.013142
0.006419
0.006579
0.013458
0.013028
0.008164
0.008023
0.008362
0.008453
0.012114
0.012233
0.012405
0.012022
0.006823
0.006434
0.013670
0.013290
0.006455
0.006515
0.006486
0.013401
0.007131
0.006969
0.011725
0.012055
0.011504
0.011882
0.007087
0.006960
0.006484
0.006401
0.012727
0.013139
0.010022
0.009691
0.010572
0.010201
0.010309
0.009957
0.006430
0.006396
0.007700
0.007882
0.006413
0.006409
0.006418
0.013469
0.006523
0.007746
0.007559
0.006429
0.006421
0.006685
0.007452
0.007590
0.011726
0.011961
0.006379
0.006422
0.006437
0.006666
0.012178
0.011901
0.012176
0.011769
0.007793
0.007577
0.006400
0.013354
0.006477
0.010792
0.010408
0.006424
0.006438
0.006464
0.006698
0.010239
0.010426
0.006848
0.006750
0.010336
0.010250
0.010014
0.010239
0.006459
0.013427
0.006540
0.006439
0.013782
0.013455
0.011193
0.011415
0.006443
0.012070
0.012392
0.010787
0.009359
0.011626
0.009590
0.009804
0.011020
0.011307
0.010275
0.008753
0.007746
0.008922
0.007533
0.008305
0.008138
0.008504
0.007867
0.007231
0.007322
0.007155
0.006994
0.007060
0.007017
0.006762
0.014353
0.013345
0.006761
0.010746
0.011526
0.011758
0.011026
0.007769
0.008291
0.012671
0.012126
0.007173
0.006796
0.012540
0.011772
0.012051
0.011301
0.010126
0.009442
0.009621
0.009000
0.007919
0.008468
0.007100
0.007559
0.006947
0.007352
0.007103
0.006775
0.013286
0.012564
0.008056
0.008720
0.007237
0.006859
0.008179
0.007593
0.008743
0.009386
0.009810
0.010407
0.012241
0.011597
0.009850
0.009217
0.010925
0.010353
0.009074
0.008471
0.007466
0.008003
0.008794
0.008283
0.007848
0.007372
0.007681
0.007256
0.007001
0.007490
0.006938
0.007038
0.006920
0.012654
0.006705
0.007031
0.006864
0.006883
0.009887
0.009515
0.007043
0.010534
0.010796
0.012659
0.013055
0.012892
0.011939
0.007687
0.007451
0.007668
0.007957
0.009061
0.008788
0.007496
0.008272
0.008205
0.008547
0.008596
0.009475
0.008157
0.007391
0.008406
0.009292
0.007258
0.007968
0.010273
0.011197
0.007971
0.008815
0.007851
0.008680
0.012201
0.011221
0.012372
0.011422
0.012016
0.011042
0.007114
0.006929
0.010729
0.011062
0.010890
0.011422
0.010793
0.011757
0.007218
0.007005
0.007648
0.008444
0.010526
0.011514
0.007566
0.007386
0.007935
0.008221
0.007239
0.006715
0.008806
0.008521
0.010184
0.009750
0.010290
0.010563
0.007266
0.007486
0.009356
0.009050
0.009944
0.010912
0.010094
0.009174
0.009589
0.009280
0.008791
0.009632
0.007131
0.007394
0.007466
0.006844
0.006928
0.007578
0.008157
0.008992
0.007106
0.007861
0.010030
0.010288
0.013385
0.012393
0.006666
0.007157
0.007078
0.014351
0.007348
0.006780
0.007090
0.012343
0.012597
0.006842
0.006680
0.006662
0.006894
0.006978
0.006774
0.008007
0.012327
0.013064
0.013742
0.013580
0.014095
0.013415
0.012900
0.007063
0.006966
0.006793
0.013935
0.009088
0.007009
0.013542
0.014606
0.012423
0.012816
0.008091
0.007804
0.007637
0.006682
0.008099
0.008338
0.013195
0.012161
0.012726
0.013673
0.007426
0.012985
0.006751
0.007113
0.008664
0.008377
0.006633
0.007004
0.013047
0.013295
0.010046
0.010042
0.007195
0.007811
0.007273
0.010567
0.011272
0.007092
0.007817
0.007555
0.011834
0.012164
0.006726
0.012660
0.011641
0.007053
0.007721
0.012368
0.012101
0.011874
0.006973
0.007146
0.009185
0.008218
0.011637
0.011233
0.010545
0.013370
0.006909
0.007020
0.009617
0.010343
0.007029
0.012383
0.011867
0.009837
0.008949
0.007008
0.010661
0.010035
0.007021
0.011934
0.011572
0.013070
0.014042
0.007001
0.013152
0.013793
0.014168
0.011033
0.011290
0.009734
0.010585
0.010386
0.009427
0.006831
0.010146
0.010926
0.013506
0.013720
0.006971
0.013621
0.014007
0.013252
0.013615
0.006987
0.013394
0.006702
0.013854
0.006908
0.006839
0.012871
0.014497
0.013123
0.012570
0.010790
0.011978
0.011110
0.011394
0.011698
0.008287
0.009353
0.009538
0.008082
0.008961
0.009174
0.007714
0.007272
0.007028
0.007134
0.006646
0.006871
0.014809
0.014574
0.014286
0.014163
0.014045
0.013929
0.007066
0.007255
0.011255
0.011319
0.008738
0.008682
0.007530
0.007347
0.011715
0.011786
0.006780
0.007036
0.008986
0.008948
0.006957
0.007194
0.013497
0.013376
0.011987
0.012060
0.010143
0.010117
0.010471
0.010786
0.010434
0.010738
0.011043
0.011102
0.009382
0.009394
0.007952
0.008069
0.009169
0.009193
0.007738
0.007895
0.007582
0.007726
0.006794
0.006620
0.006789
0.014811
0.014334
0.014129
0.014425
0.014506
0.014553
0.014315
0.006584
0.006992
0.014825
0.014944
0.014116
0.013744
0.013430
0.007031
0.006899
0.007009
0.007149
0.007156
0.007259
0.007954
0.008011
0.013072
0.012897
0.007573
0.007604
0.009647
0.009645
0.010310
0.010318
0.010635
0.010619
0.007328
0.007556
0.008846
0.008875
0.007657
0.007449
0.009640
0.009630
0.010137
0.010089
0.010315
0.010256
0.010588
0.010515
0.008953
0.008914
0.008812
0.008759
0.007017
0.007290
0.012611
0.012489
0.010932
0.010956
0.007405
0.007304
0.007779
0.007842
0.008611
0.008538
0.008602
0.008615
0.009270
0.009282
0.010019
0.010016
0.008026
0.008157
0.008148
0.008195
0.012073
0.012104
0.010784
0.010871
0.008435
0.008341
0.011210
0.011240
0.008410
0.008376
0.011839
0.011877
0.012370
0.012323
0.007164
0.007417
0.009902
0.009874
0.011065
0.011168
0.007790
0.007600
0.009098
0.009123
0.011436
0.011520
0.011554
0.011514
0.006692
0.006895
0.013513
0.013571
0.014305
0.014251
0.006673
0.007054
0.013906
0.013964
0.014871
0.015047
0.006883
0.007120
0.006871
0.007184
0.006957
0.006685
0.013801
0.013689
0.006516
0.006958
0.006874
0.006752
0.006704
0.006808
0.013850
0.014027
0.009832
0.014659
0.014498
0.014977
0.014972
0.007457
0.014681
0.014739
0.014794
0.015043