# vtk DataFile Version 2.0
Unstructured Grid Example
ASCII
DATASET UNSTRUCTURED_GRID
POINTS 2674 float
0.040225 0.449756 -0.018206 
0.544685 -0.045785 -0.008474 
0.049145 -0.550244 -0.003191 
-0.455315 -0.054704 -0.012923 
0.022428 0.509815 3.981794 
0.526888 0.014274 3.991526 
0.031347 -0.490185 3.996809 
-0.473112 0.005355 3.987077 
0.041340 0.324756 -0.016329 
0.419685 -0.046900 -0.009030 
0.048030 -0.425244 -0.005068 
-0.330315 -0.053589 -0.012367 
0.023543 0.384815 3.983671 
0.401888 0.013159 3.990970 
0.030232 -0.365185 3.994932 
-0.348112 0.006470 3.987633 
0.120059 0.501077 3.982373 
0.214109 0.473461 3.983217 
0.300965 0.428027 3.984295 
0.377288 0.366521 3.985566 
0.440145 0.291308 3.986981 
0.487121 0.205276 3.988484 
0.516410 0.111734 3.990019 
0.518150 -0.083357 3.992948 
0.490534 -0.177407 3.994230 
0.445100 -0.264263 3.995322 
0.383594 -0.340585 3.996183 
0.308381 -0.403443 3.996780 
0.222349 -0.450419 3.997089 
0.128807 -0.479708 3.997099 
-0.066284 -0.481448 3.996231 
-0.160334 -0.453832 3.995386 
-0.247189 -0.408398 3.994308 
-0.323512 -0.346892 3.993037 
-0.386370 -0.271679 3.991623 
-0.433346 -0.185647 3.990119 
-0.462635 -0.092104 3.988584 
-0.464375 0.102986 3.985655 
-0.436759 0.197036 3.984373 
-0.391325 0.283892 3.983281 
-0.329819 0.360215 3.982420 
-0.254606 0.423072 3.981824 
-0.168574 0.470048 3.981514 
-0.075031 0.499337 3.981505 
-0.446578 0.042927 -0.014345 
-0.418961 0.136977 -0.015627 
-0.373527 0.223833 -0.016719 
-0.312022 0.300156 -0.017580 
-0.236808 0.363013 -0.018176 
-0.150777 0.409989 -0.018486 
-0.057234 0.439278 -0.018495 
0.137856 0.441018 -0.017627 
0.231907 0.413402 -0.016783 
0.318762 0.367968 -0.015705 
0.395085 0.306462 -0.014434 
0.457942 0.231249 -0.013019 
0.504918 0.145217 -0.011516 
0.534208 0.051675 -0.009981 
0.535948 -0.143416 -0.007052 
0.508331 -0.237466 -0.005770 
0.462898 -0.324322 -0.004678 
0.401392 -0.400644 -0.003817 
0.326178 -0.463502 -0.003220 
0.240147 -0.510478 -0.002911 
0.146604 -0.539767 -0.002901 
-0.048486 -0.541507 -0.003769 
-0.142537 -0.513891 -0.004614 
-0.229392 -0.468457 -0.005692 
-0.305715 -0.406951 -0.006963 
-0.368572 -0.331738 -0.008377 
-0.415548 -0.245706 -0.009881 
-0.444838 -0.152164 -0.011416 
0.039781 0.451257 0.081794 
0.039336 0.452758 0.181794 
0.038891 0.454260 0.281794 
0.038446 0.455761 0.381794 
0.038001 0.457263 0.481794 
0.037556 0.458764 0.581794 
0.037111 0.460266 0.681794 
0.036666 0.461767 0.781794 
0.036221 0.463269 0.881794 
0.035776 0.464770 0.981794 
0.035331 0.466272 1.081794 
0.034886 0.467773 1.181794 
0.034441 0.469275 1.281794 
0.033996 0.470776 1.381794 
0.033551 0.472278 1.481794 
0.033107 0.473779 1.581794 
0.032662 0.475281 1.681794 
0.032217 0.476782 1.781794 
0.031772 0.478284 1.881794 
0.031327 0.479785 1.981794 
0.030882 0.481287 2.081794 
0.030437 0.482788 2.181794 
0.029992 0.484289 2.281794 
0.029547 0.485791 2.381794 
0.029102 0.487292 2.481794 
0.028657 0.488794 2.581794 
0.028212 0.490295 2.681794 
0.027767 0.491797 2.781794 
0.027322 0.493298 2.881794 
0.026877 0.494800 2.981794 
0.026432 0.496301 3.081794 
0.025988 0.497803 3.181794 
0.025543 0.499304 3.281794 
0.025098 0.500806 3.381794 
0.024653 0.502307 3.481794 
0.024208 0.503809 3.581794 
0.023763 0.505310 3.681794 
0.023318 0.506812 3.781794 
0.022873 0.508313 3.881794 
-0.455760 -0.053203 0.087077 
-0.456205 -0.051701 0.187077 
-0.456650 -0.050200 0.287077 
-0.457095 -0.048698 0.387077 
-0.457540 -0.047197 0.487077 
-0.457985 -0.045695 0.587077 
-0.458429 -0.044194 0.687077 
-0.458874 -0.042692 0.787077 
-0.459319 -0.041191 0.887077 
-0.459764 -0.039689 0.987077 
-0.460209 -0.038188 1.087077 
-0.460654 -0.036686 1.187077 
-0.461099 -0.035185 1.287077 
-0.461544 -0.033683 1.387077 
-0.461989 -0.032182 1.487077 
-0.462434 -0.030680 1.587077 
-0.462879 -0.029179 1.687077 
-0.463324 -0.027677 1.787077 
-0.463769 -0.026176 1.887077 
-0.464214 -0.024675 1.987077 
-0.464659 -0.023173 2.087077 
-0.465104 -0.021672 2.187077 
-0.465548 -0.020170 2.287077 
-0.465993 -0.018669 2.387077 
-0.466438 -0.017167 2.487077 
-0.466883 -0.015666 2.587077 
-0.467328 -0.014164 2.687077 
-0.467773 -0.012663 2.787077 
-0.468218 -0.011161 2.887077 
-0.468663 -0.009660 2.987077 
-0.469108 -0.008158 3.087077 
-0.469553 -0.006657 3.187077 
-0.469998 -0.005155 3.287077 
-0.470443 -0.003654 3.387077 
-0.470888 -0.002152 3.487077 
-0.471333 -0.000651 3.587077 
-0.471778 0.000851 3.687077 
-0.472223 0.002352 3.787077 
-0.472667 0.003854 3.887077 
0.048700 -0.548743 0.096809 
0.048255 -0.547242 0.196809 
0.047810 -0.545740 0.296809 
0.047365 -0.544239 0.396809 
0.046920 -0.542737 0.496809 
0.046475 -0.541236 0.596809 
0.046030 -0.539734 0.696809 
0.045585 -0.538233 0.796809 
0.045140 -0.536731 0.896809 
0.044695 -0.535230 0.996809 
0.044250 -0.533728 1.096809 
0.043805 -0.532227 1.196809 
0.043360 -0.530725 1.296809 
0.042916 -0.529224 1.396809 
0.042471 -0.527722 1.496809 
0.042026 -0.526221 1.596809 
0.041581 -0.524719 1.696809 
0.041136 -0.523218 1.796809 
0.040691 -0.521716 1.896809 
0.040246 -0.520215 1.996809 
0.039801 -0.518713 2.096809 
0.039356 -0.517212 2.196809 
0.038911 -0.515711 2.296809 
0.038466 -0.514209 2.396809 
0.038021 -0.512708 2.496809 
0.037576 -0.511206 2.596809 
0.037131 -0.509705 2.696809 
0.036686 -0.508203 2.796809 
0.036242 -0.506702 2.896809 
0.035797 -0.505200 2.996809 
0.035352 -0.503699 3.096809 
0.034907 -0.502197 3.196809 
0.034462 -0.500696 3.296809 
0.034017 -0.499194 3.396809 
0.033572 -0.497693 3.496809 
0.033127 -0.496191 3.596809 
0.032682 -0.494690 3.696809 
0.032237 -0.493188 3.796809 
0.031792 -0.491687 3.896809 
0.544240 -0.044283 0.091526 
0.543795 -0.042782 0.191526 
0.543350 -0.041280 0.291526 
0.542905 -0.039779 0.391526 
0.542460 -0.038277 0.491526 
0.542015 -0.036776 0.591526 
0.541571 -0.035275 0.691526 
0.541126 -0.033773 0.791526 
0.540681 -0.032272 0.891526 
0.540236 -0.030770 0.991526 
0.539791 -0.029269 1.091526 
0.539346 -0.027767 1.191526 
0.538901 -0.026266 1.291526 
0.538456 -0.024764 1.391526 
0.538011 -0.023263 1.491526 
0.537566 -0.021761 1.591526 
0.537121 -0.020260 1.691526 
0.536676 -0.018758 1.791526 
0.536231 -0.017257 1.891526 
0.535786 -0.015755 1.991526 
0.535341 -0.014254 2.091526 
0.534896 -0.012752 2.191526 
0.534452 -0.011251 2.291526 
0.534007 -0.009749 2.391526 
0.533562 -0.008248 2.491526 
0.533117 -0.006746 2.591526 
0.532672 -0.005245 2.691526 
0.532227 -0.003744 2.791526 
0.531782 -0.002242 2.891526 
0.531337 -0.000741 2.991526 
0.530892 0.000761 3.091526 
0.530447 0.002262 3.191526 
0.530002 0.003764 3.291526 
0.529557 0.005265 3.391526 
0.529112 0.006767 3.491526 
0.528667 0.008268 3.591526 
0.528222 0.009770 3.691526 
0.527777 0.011271 3.791526 
0.527333 0.012773 3.891526 
-0.318403 0.043582 -0.013767 
-0.281747 0.134359 -0.014959 
-0.222845 0.212556 -0.015860 
-0.145712 0.272843 -0.016409 
-0.055603 0.311112 -0.016569 
0.138511 0.312843 -0.015705 
0.229288 0.276187 -0.014740 
0.307485 0.217286 -0.013500 
0.367772 0.140152 -0.012069 
0.406042 0.050043 -0.010544 
0.144973 -0.411601 -0.004828 
0.235082 -0.373332 -0.004988 
0.312215 -0.313044 -0.005537 
0.371117 -0.234848 -0.006438 
0.407773 -0.144071 -0.007629 
-0.049141 -0.413332 -0.005691 
-0.139918 -0.376676 -0.006656 
-0.218115 -0.317775 -0.007897 
-0.278402 -0.240641 -0.009328 
-0.316671 -0.150532 -0.010853 
-0.336200 0.103641 3.986233 
-0.299544 0.194418 3.985041 
-0.240642 0.272615 3.984140 
-0.163509 0.332902 3.983591 
-0.073400 0.371171 3.983431 
0.388244 0.110102 3.989456 
0.349975 0.200211 3.987931 
0.289688 0.277345 3.986500 
0.211491 0.336246 3.985260 
0.120714 0.372902 3.984295 
0.127175 -0.351542 3.995172 
0.217284 -0.313273 3.995012 
0.294418 -0.252985 3.994463 
0.353319 -0.174789 3.993562 
0.389975 -0.084012 3.992371 
-0.066939 -0.353273 3.994309 
-0.157716 -0.316617 3.993344 
-0.235912 -0.257716 3.992103 
-0.296200 -0.180582 3.990672 
-0.334469 -0.090473 3.989147 
0.023988 0.383313 3.883671 
0.024433 0.381812 3.783671 
0.024878 0.380310 3.683671 
0.025323 0.378809 3.583671 
0.025768 0.377307 3.483671 
0.026213 0.375806 3.383671 
0.026657 0.374304 3.283671 
0.027102 0.372803 3.183671 
0.027547 0.371301 3.083671 
0.027992 0.369800 2.983671 
0.028437 0.368298 2.883671 
0.028882 0.366797 2.783671 
0.029327 0.365295 2.683671 
0.029772 0.363794 2.583671 
0.030217 0.362292 2.483671 
0.030662 0.360791 2.383671 
0.031107 0.359289 2.283671 
0.031552 0.357788 2.183671 
0.031997 0.356287 2.083671 
0.032442 0.354785 1.983671 
0.032887 0.353284 1.883671 
0.033332 0.351782 1.783671 
0.033776 0.350281 1.683671 
0.034221 0.348779 1.583671 
0.034666 0.347278 1.483671 
0.035111 0.345776 1.383671 
0.035556 0.344275 1.283671 
0.036001 0.342773 1.183671 
0.036446 0.341272 1.083671 
0.036891 0.339770 0.983671 
0.037336 0.338269 0.883671 
0.037781 0.336767 0.783671 
0.038226 0.335266 0.683671 
0.038671 0.333764 0.583671 
0.039116 0.332263 0.483671 
0.039561 0.330761 0.383671 
0.040006 0.329260 0.283671 
0.040451 0.327758 0.183671 
0.040895 0.326257 0.083671 
0.419240 -0.045398 0.090970 
0.418795 -0.043897 0.190970 
0.418350 -0.042395 0.290970 
0.417905 -0.040894 0.390970 
0.417460 -0.039392 0.490970 
0.417015 -0.037891 0.590970 
0.416571 -0.036389 0.690970 
0.416126 -0.034888 0.790970 
0.415681 -0.033386 0.890970 
0.415236 -0.031885 0.990970 
0.414791 -0.030384 1.090970 
0.414346 -0.028882 1.190970 
0.413901 -0.027381 1.290970 
0.413456 -0.025879 1.390970 
0.413011 -0.024378 1.490970 
0.412566 -0.022876 1.590970 
0.412121 -0.021375 1.690970 
0.411676 -0.019873 1.790970 
0.411231 -0.018372 1.890970 
0.410786 -0.016870 1.990970 
0.410341 -0.015369 2.090970 
0.409896 -0.013867 2.190970 
0.409452 -0.012366 2.290970 
0.409007 -0.010864 2.390970 
0.408562 -0.009363 2.490970 
0.408117 -0.007861 2.590970 
0.407672 -0.006360 2.690970 
0.407227 -0.004858 2.790970 
0.406782 -0.003357 2.890970 
0.406337 -0.001855 2.990970 
0.405892 -0.000354 3.090970 
0.405447 0.001147 3.190970 
0.405002 0.002649 3.290970 
0.404557 0.004150 3.390970 
[...]
POINT_DATA 2674
SCALARS u float 1
LOOKUP_TABLE default
0.014156
0.013658
0.014890
0.015197
0.006457
0.006688
0.006985
0.006415
0.014198
0.013842
0.014750
0.014997
0.006410
0.006617
0.006812
0.006411
0.006460
0.006464
0.006472
0.006488
0.006517
0.006560
0.006618
0.006764
0.006842
0.006913
0.006972
0.007012
0.007028
0.007019
0.006928
0.006853
0.006767
0.006677
0.006591
0.006515
0.006456
0.006392
0.006387
0.006394
0.006408
0.006425
0.006440
0.006451
0.015127
0.015035
0.014923
0.014793
0.014646
0.014488
0.014323
0.013996
0.013851
0.013728
0.013635
0.013579
0.013564
0.013590
0.013763
0.013899
0.014057
0.014230
0.014407
0.014581
0.014744
0.015016
0.015117
0.015194
0.015244
0.015269
0.015269
0.015245
0.013862
0.013569
0.013278
0.012989
0.012702
0.012417
0.012135
0.011855
0.011578
0.011303
0.011032
0.010765
0.010501
0.010240
0.009985
0.009733
0.009487
0.009246
0.009010
0.008781
0.008559
0.008343
0.008136
0.007937
0.007747
0.007567
0.007397
0.007238
0.007092
0.006958
0.006838
0.006731
0.006640
0.006564
0.006504
0.006461
0.006434
0.006425
0.006432
0.014897
0.014599
0.014301
0.014006
0.013712
0.013419
0.013129
0.012840
0.012554
0.012270
0.011988
0.011709
0.011433
0.011160
0.010890
0.010623
0.010360
0.010102
0.009847
0.009598
0.009353
0.009114
0.008881
0.008654
0.008434
0.008222
0.008017
0.007822
0.007636
0.007460
0.007294
0.007141
0.006999
0.006871
0.006756
0.006657
0.006572
0.006503
0.006450
0.014598
0.014308
0.014020
0.013733
0.013449
0.013167
0.012887
0.012610
0.012335
0.012063
0.011795
0.011529
0.011267
0.011009
0.010755
0.010505
0.010260
0.010020
0.009785
0.009556
0.009333
0.009116
0.008907
0.008705
0.008511
0.008326
0.008150
0.007985
0.007829
0.007685
0.007553
0.007433
0.007326
0.007233
0.007154
0.007089
0.007040
0.007006
0.006987
0.013369
0.013081
0.012795
0.012512
0.012231
0.011953
0.011677
0.011405
0.011135
0.010869
0.010607
0.010349
0.010095
0.009845
0.009601
0.009361
0.009128
0.008901
0.008681
0.008467
0.008262
0.008065
0.007877
0.007699
0.007531
0.007374
0.007229
0.007097
0.006977
0.006872
0.006781
0.006706
0.006646
0.006602
0.006575
0.006564
0.006570
0.006593
0.006632
0.014919
0.014812
0.014679
0.014526
0.014362
0.014044
0.013915
0.013823
0.013777
0.013784
0.014598
0.014429
0.014255
0.014090
0.013948
0.014876
0.014971
0.015031
0.015055
0.015043
0.006384
0.006375
0.006379
0.006388
0.006399
0.006552
0.006499
0.006461
0.006436
0.006421
0.006840
0.006838
0.006808
0.006755
0.006688
0.006758
0.006685
0.006604
0.006525
0.006459
0.006388
0.006384
0.006397
0.006428
0.006475
0.006538
0.006618
0.006713
0.006822
0.006946
0.007084
0.007233
0.007395
0.007568
0.007751
0.007943
0.008145
0.008355
0.008572
0.008797
0.009028
0.009266
0.009509
0.009757
0.010010
0.010267
0.010529
0.010794
0.011063
0.011336
0.011611
0.011889
0.012170
0.012453
0.012739
0.013027
0.013317
0.013609
0.013902
0.013551
0.013262
0.012974
0.012689
0.012406
0.012126
0.011848
0.011573
0.011301
0.011032
0.010767
0.010505
0.010248
0.009995
0.009746
0.009503
0.009265
0.009033
0.008807
0.008589
0.008377
0.008174
0.007979
0.007793
0.007618
0.007453
0.007299
0.007157
0.007029
0.006913
0.006812
0.006726
0.006655
0.006600
0.006561
0.006539
0.006533
0.006545
0.006573
0.006812
0.006827
0.006859
0.006907
0.006970
0.007048
0.007140
0.007247
0.007367
0.007499
0.007644
0.007800
0.007967
0.008144
0.008330
0.008525
0.008729
0.008940
0.009158
0.009383
0.009614
0.009851
0.010093
0.010340
0.010592
0.010847
0.011107
0.011371
0.011638
0.011909
0.012182
0.012458
0.012737
0.013018
0.013302
0.013588
0.013875
0.014165
0.014457
0.014698
0.014401
0.014105
0.013810
0.013517
0.013226
0.012937
0.012651
0.012366
0.012084
0.011804
0.011527
0.011253
0.010982
0.010714
0.010451
0.010191
0.009935
0.009684
0.009438
0.009197
0.008962
0.008734
0.008512
0.008297
0.008091
0.007892
0.007703
0.007524
0.007356
0.007198
0.007053
0.006921
0.006802
0.006698
0.006608
0.006535
0.006477
0.006436
0.007392
0.008545
0.007733
0.007915
0.008092
0.009734
0.010751
0.011000
0.010243
0.006770
0.006951
0.007047
0.007148
0.006804
0.006865
0.012100
0.011835
0.013167
0.012374
0.012636
0.013685
0.011288
0.006692
0.013742
0.014227
0.006828
0.006821
0.006695
0.013466
0.013793
0.009838
0.010317
0.007024
0.006761
0.008970
0.010046
0.010688
0.007502
0.007175
0.006959
0.006714
0.011175
0.010522
0.008514
0.007302
0.007000
0.008705
0.010491
0.009021
0.007645
0.011994
0.007305
0.007181
0.008275
0.010966
0.006883
0.009486
0.012478
0.007434
0.007031
0.008445
0.008116
0.009234
0.008718
0.012908
0.007088
0.006809
0.013402
0.006779
0.013438
0.013761
0.014015
0.006807
0.006733
0.006780
0.006835
0.006628
0.013466
0.014143
0.009317
0.013145
0.013780
0.006847
0.006648
0.013436
0.013156
0.007253
0.006815
0.006750
0.012335
0.012650
0.006770
0.006882
0.012952
0.013168
0.006966
0.007120
0.007543
0.007442
0.006906
0.006677
0.010504
0.010263
0.006851
0.006707
0.008975
0.008745
0.009431
0.009891
0.010092
0.010736
0.007747
0.007232
0.007221
0.006800
0.008500
0.007911
0.008726
0.008499
0.009124
0.008484
0.008934
0.008312
0.009680
0.010029
0.011497
0.011858
0.006946
0.006619
0.012146
0.012806
0.012129
0.012317
0.011107
0.011708
0.010519
0.010759
0.011625
0.012253
0.011305
0.011988
0.009878
0.010560
0.011842
0.012564
0.010269
0.010948
0.010511
0.011206
0.010771
0.011414
0.009677
0.010321
0.007773
0.007510
0.011279
0.011529
0.009316
0.009604
0.007619
0.007114
0.012665
0.012994
0.007012
0.006656
0.008717
0.008112
0.007225
0.007064
0.006954
0.006797
0.011872
0.012155
0.008505
0.008364
0.007321
0.006871
0.007448
0.007281
0.007950
0.007668
0.009985
0.010230
0.008346
0.007751
0.007121
0.006727
0.008160
0.007656
0.007835
0.007361
0.007029
0.006882
0.006883
0.006609
0.008258
0.012872
0.013611
0.013704
0.014439
0.013961
0.007131
0.007362
0.011545
0.010966
0.011298
0.006830
0.008930
0.010276
0.010738
0.010505
0.010732
0.010992
0.012517
0.013209
0.012925
0.006852
0.006586
0.006816
0.006719
0.009963
0.009540
0.008224
0.007903
0.007599
0.008731
0.009528
0.009747
0.007782
0.008065
0.012916
0.012410
0.008256
0.008091
0.009010
0.009195
0.009450
0.010097
0.007977
0.007482
0.009826
0.009213
0.009399
0.009171
0.008962
0.009647
0.006619
0.006826
0.008813
0.009477
0.006907
0.008192
0.007196
0.007728
0.007964
0.007361
0.009412
0.009144
0.009727
0.010508
0.006385
0.006405
0.006569
0.006788
0.006500
0.006442
0.011632
0.012215
0.012561
0.013219
0.008582
0.010914
0.006391
0.006435
0.006402
0.013487
0.013700
0.006482
0.013146
0.013293
0.007276
0.011012
0.006517
0.007262
0.006537
0.011180
0.009226
0.010753
0.006811
0.010909
0.006774
0.009785
0.009385
0.006970
0.009446
0.006621
0.006896
0.006614
0.009579
0.006406
0.006446
0.009009
0.009145
0.012208
0.012403
0.012548
0.012752
0.007633
0.007825
0.008436
0.009836
0.011822
0.011550
0.007557
0.007717
0.008320
0.010023
0.008515
0.008644
0.011993
0.011743
0.006398
0.012952
0.006375
0.006418
0.013371
0.013545
0.006387
0.013345
0.013615
0.006381
0.006485
0.012870
0.013090
0.006381
0.006473
0.007624
0.007677
0.012002
0.012098
0.008961
0.009009
0.008281
0.008345
0.012684
0.012798
0.006705
0.006716
0.007149
0.007124
0.011395
0.011482
0.006773
0.007150
0.007046
0.007306
0.007219
0.011262
0.011474
0.009934
0.010159
0.006428
0.012139
0.012408
0.009077
0.008892
0.011478
0.011744
0.010661
0.009401
0.009478
0.010661
0.006964
0.010918
0.006616
0.006609
0.006453
0.006495
0.006687
0.006700
0.006607
0.006612
0.006423
0.006439
0.008448
0.008514
0.009136
0.009338
0.007464
0.007338
0.009364
0.009573
0.011127
0.007410
0.009621
0.009893
0.009163
0.009240
0.010935
0.011026
0.008598
0.008429
0.011697
0.011791
0.012358
0.012462
0.006865
0.006832
0.008359
0.008206
0.009605
0.009713
0.008649
0.008823
0.011805
0.012068
0.010115
0.010369
0.008706
0.008804
0.008075
0.007940
0.007562
0.007852
0.007720
0.011149
0.006389
0.006408
0.006429
0.006383
0.012720
0.013006
0.006377
0.006398
0.006397
0.013588
0.013879
0.006540
0.013583
0.008379
0.010776
0.010678
0.011242
0.011124
0.007284
0.007270
0.011889
0.006635
0.007520
0.007452
0.006471
0.006478
0.007893
0.007827
0.006692
0.006692
0.010400
0.010410
0.006541
0.006541
0.012442
0.012718
0.013105
0.013378
0.008799
0.012903
0.013026
0.008083
0.008166
0.011342
0.011006
0.007041
0.010461
0.010585
0.009954
0.007110
0.010202
0.010173
0.007001
0.006409
0.006486
0.009894
0.007461
0.006481
0.006461
0.006860
0.006787
0.007384
0.010564
0.007599
0.008660
0.008419
0.007969
0.010794
0.009976
0.011085
0.009730
0.010247
0.011357
0.010549
0.006536
0.006980
0.006821
0.006597
0.013373
0.012702
0.013016
0.011877
0.009185
0.014042
0.006393
0.006408
0.014341
0.014210
0.006387
0.006391
0.014643
0.011892
0.011514
0.007773
0.008120
0.013322
0.009516
0.011627
0.012215
0.011236
0.009240
0.011829
0.006447
0.013750
0.008782
0.009692
0.010343
0.012514
0.013063
0.009973
0.009092
0.009326
0.012644
0.012150
0.006520
0.007256
0.010129
0.011112
0.012823
0.013505
0.006500
0.006719
0.007474
0.006624
0.010740
0.009778
0.012457
0.006598
0.006740
0.007078
0.007282
0.009389
0.008975
0.006793
0.014173
0.006400
0.006434
0.013875
0.013652
0.006474
0.006387
0.014531
0.013873
0.006428
0.009418
0.006475
0.013590
0.013729
0.006465
0.008441
0.008620
0.008971
0.009104
0.006680
0.012927
0.012728
0.009293
0.009099
0.008914
0.009815
0.009299
0.009491
0.009688
0.007223
0.007336
0.007477
0.007628
0.007557
0.007897
0.012442
0.011862
0.014504
0.006383
0.007352
0.007696
0.007077
0.013663
0.007197
0.007558
0.007167
0.006473
0.006424
0.013937
0.006427
0.013965
0.009592
0.009109
0.007077
0.007399
0.008520
0.008990
0.007237
0.006945
0.011088
0.011330
0.007992
0.008162
0.010066
0.009542
0.010853
0.010369
0.008214
0.008599
0.013518
0.012893
0.012150
0.011568
0.012609
0.012422
0.008707
0.008858
0.011027
0.010877
0.011146
0.010567
0.013256
0.006588
0.006629
0.008346
0.008821
0.011837
0.011254
0.011460
0.010907
0.009793
0.010331
0.012939
0.012329
0.010048
0.010549
0.009940
0.009759
0.010824
0.010619
0.008203
0.008390
0.013205
0.013024
0.006700
0.006740
0.006516
0.006815
0.011774
0.011615
0.006674
0.006850
0.006948
0.006962
0.007780
0.007953
0.006825
0.013621
0.006475
0.013360
0.006530
0.013838
0.013482
0.006444
0.006519
0.011594
0.014107
0.006392
0.006404
0.014764
0.008500
0.008831
0.014169
0.006403
0.009901
0.009543
0.008734
0.009231
0.007653
0.007772
0.011593
0.011401
0.011784
0.012007
0.010507
0.010252
0.006927
0.010193
0.009999
0.007115
0.008187
0.007486
0.012083
0.012710
0.007968
0.008344
0.014359
0.006383
0.012419
0.012109
0.012254
0.006711
0.007395
0.007082
0.007795
0.006840
0.007742
0.013197
0.013119
0.009177
0.008656
0.008243
0.008924
0.010491
0.011459
0.010199
0.011692
0.010736
0.011181
0.006820
0.007600
0.007417
0.007292
0.006886
0.007020
0.013127
0.012624
0.013461
0.013792
0.009605
0.012128
0.006577
0.014563
0.014469
0.006723
0.006508
0.014833
0.014703
0.006726
0.007060
0.006915
0.008014
0.012180
0.007960
0.012093
0.006593
0.010257
0.010744
0.011896
0.013942
0.006964
0.006794
0.011810
0.010689
0.010215
0.013865
0.007677
0.010495
0.006868
0.007582
0.006709
0.010447
0.010031
0.009995
0.011027
0.010965
0.008443
0.008631
0.009304
0.011382
0.013010
0.012722
0.008397
0.008612
0.009314
0.011312
0.009527
0.009508
0.012916
0.012619
0.014467
0.006645
0.006663
0.014112
0.006743
0.006782
0.006503
0.014633
0.014457
0.006561
0.006918
0.008536
0.008551
0.010017
0.010007
0.011023
0.011047
0.009291
0.009288
0.006841
0.012558
0.012504
0.007894
0.007858
0.013748
0.013596
0.006743
0.007843
0.007767
0.007974
0.007901
0.006655
0.012375
0.012260
0.012865
0.012822
0.011012
0.010916
0.006654
0.006801
0.006864
0.014249
0.014168
0.014039
0.013886
0.006744
0.012602
0.012454
0.007454
0.007504
0.009914
0.009971
0.011571
0.011619
0.012878
0.012730
0.010501
0.010477
0.011484
0.011588
0.007120
0.007031
0.007296
0.007154
0.007737
0.007688
0.013147
0.013002
0.007018
0.006815
0.007144
0.006967
0.007538
0.007433
0.007248
0.007173
0.009478
0.009471
0.010480
0.010402
0.010226
0.010158
0.008093
0.008063
0.012073
0.011948
0.010742
0.010655
0.010245
0.010225
0.012089
0.012038
0.010752
0.010726
0.011257
0.011149
0.009353
0.009380
0.011301
0.011269
0.006990
0.006908
0.009115
0.009127
0.009694
0.009656
0.009740
0.009725
0.008836
0.008830
0.013291
0.013217
0.008466
0.008553
0.008530
0.006679
0.006761
0.006833
0.010914
0.006656
0.014341
0.014179
0.006456
0.014844
0.014651
0.006781
0.006807
0.006910
0.012406
0.009384
0.011890
0.011863
0.007399
0.007321
0.007156
0.007550
0.007609
0.008783
0.008774
0.008140
0.008154
0.008355
0.008337
0.013303
0.013449
0.012293
0.012242
0.013552
0.013628
0.009823
0.007916
0.009062
0.009063
0.007423
0.007289
0.013078
0.013025
0.014793
0.014749
0.006580
0.007785
0.008048
0.008008
0.007593
0.007473
0.008239
0.008252
0.007744
0.007644
0.008293
0.008218
0.007203
0.007079
0.011388
0.012904
0.011645
0.011098
0.011930
0.010733
0.009268
0.008943
0.008719
0.009778
0.009525
0.010117
0.010428
0.008295
0.007871
0.008089
0.007674
0.007307
0.007473
0.006685
0.006377
0.006588
0.006403
0.006434
0.012821
0.006389
0.013130
0.006546
0.013263
0.012605
0.012864
0.006411
0.006387
0.012404
0.012673
0.008776
0.008571
0.010930
0.010675
0.008739
0.008954
0.009274
0.009486
0.006733
0.006791
0.006468
0.006476
0.006638
0.006589
0.006524
0.006551
0.008572
0.008368
0.006707
0.006646
0.008316
0.008121
0.011236
0.011552
0.011704
0.011454
0.011226
0.010967
0.010699
0.010441
0.009014
0.009233
0.010099
0.009831
0.009794
0.009562
0.007222
0.007102
0.008074
0.007898
0.007298
0.007433
0.007578
0.007712
0.007101
0.006985
0.006939
0.006844
0.006394
0.006463
0.006400
0.006381
0.006399
0.012877
0.013099
0.013040
0.012545
0.012271
0.006398
0.006390
0.012370
0.012757
0.008822
0.008936
0.011721
0.011607
0.008266
0.008158
0.008678
0.008407
0.007078
0.007225
0.008522
0.008259
0.006512
0.006549
0.006540
0.006539
0.008923
0.008647
0.008683
0.008557
0.006886
0.006922
0.011213
0.011064
0.007265
0.007197
0.007953
0.008040
0.006760
0.006760
0.010830
0.010964
0.007371
0.007438
0.007827
0.007727
0.006593
0.006662
0.008302
0.008054
0.009249
0.009364
0.009754
0.009914
0.009081
0.009218
0.009194
0.008922
0.011424
0.011059
0.007467
0.007292
0.006622
0.006666
0.006928
0.006830
0.006707
0.006775
0.010869
0.011231
0.007426
0.007617
0.008097
0.007860
0.010565
0.010265
0.009484
0.009179
0.010952
0.010595
0.010494
0.010627
0.007704
0.007930
0.007610
0.007538
0.011651
0.011253
0.011284
0.011405
0.010351
0.010046
0.010116
0.010009
0.009490
0.009609
0.009730
0.009420
0.007303
0.007147
0.007034
0.007094
0.012065
0.011894
0.006499
0.006470
0.012896
0.012570
0.012508
0.012362
0.006417
0.006451
0.012155
0.012417
0.006594
0.006616
0.006497
0.012668
0.012786
0.006378
0.006388
0.008500
0.006507
0.006424
0.013211
0.013427
0.013142
0.006419
0.006579
0.013458
0.013028
0.008164
0.008023
0.008362
0.008453
0.012114
0.012233
0.012405
0.012022
0.006823
0.006434
0.013670
0.013290
0.006455
0.006515
0.006486
0.013401
0.007131
0.006969
0.011725
0.012055
0.011504
0.011882
0.007087
0.006960
0.006484
0.006401
0.012727
0.013139
0.010022
0.009691
0.010572
0.010201
0.010309
0.009957
0.006430
0.006396
0.007700
0.007882
0.006413
0.006409
0.006418
0.013469
0.006523
0.007746
0.007559
0.006429
0.006421
0.006685
0.007452
0.007590
0.011726
0.011961
0.006379
0.006422
0.006437
0.006666
0.012178
0.011901
0.012176
0.011769
0.007793
0.007577
0.006400
0.013354
0.006477
0.010792
0.010408
0.006424
0.006438
0.006464
0.006698
0.010239
0.010426
0.006848
0.006750
0.010336
0.010250
0.010014
0.010239
0.006459
0.013427
0.006540
0.006439
0.013782
0.013455
0.011193
0.011415
0.006443
0.012070
0.012392
0.010787
0.009359
0.011626
0.009590
0.009804
0.011020
0.011307
0.010275
0.008753
0.007746
0.008922
0.007533
0.008305
0.008138
0.008504
0.007867
0.007231
0.007322
0.007155
0.006994
0.007060
0.007017
0.006762
0.014353
0.013345
0.006761
0.010746
0.011526
0.011758
0.011026
0.007769
0.008291
0.012671
0.012126
0.007173
0.006796
0.012540
0.011772
0.012051
0.011301
0.010126
0.009442
0.009621
0.009000
0.007919
0.008468
0.007100
0.007559
0.006947
0.007352
0.007103
0.006775
0.013286
0.012564
0.008056
0.008720
0.007237
0.006859
0.008179
0.007593
0.008743
0.009386
0.009810
0.010407
0.012241
0.011597
0.009850
0.009217
0.010925
0.010353
0.009074
0.008471
0.007466
0.008003
0.008794
0.008283
0.007848
0.007372
0.007681
0.007256
0.007001
0.007490
0.006938
0.007038
0.006920
0.012654
0.006705
0.007031
0.006864
0.006883
0.009887
0.009515
0.007043
0.010534
0.010796
0.012659
0.013055
0.012892
0.011939
0.007687
0.007451
0.007668
0.007957
0.009061
0.008788
0.007496
0.008272
0.008205
0.008547
0.008596
0.009475
0.008157
0.007391
0.008406
0.009292
0.007258
0.007968
0.010273
0.011197
0.007971
0.008815
0.007851
0.008680
0.012201
0.011221
0.012372
0.011422
0.012016
0.011042
0.007114
0.006929
0.010729
0.011062
0.010890
0.011422
0.010793
0.011757
0.007218
0.007005
0.007648
0.008444
0.010526
0.011514
0.007566
0.007386
0.007935
0.008221
0.007239
0.006715
0.008806
0.008521
0.010184
0.009750
0.010290
0.010563
0.007266
0.007486
0.009356
0.009050
0.009944
0.010912
0.010094
0.009174
0.009589
0.009280
0.008791
0.009632
0.007131
0.007394
0.007466
0.006844
0.006928
0.007578
0.008157
0.008992
0.007106
0.007861
0.010030
0.010288
0.013385
0.012393
0.006666
0.007157
0.007078
0.014351
0.007348
0.006780
0.007090
0.012343
0.012597
0.006842
0.006680
0.006662
0.006894
0.006978
0.006774
0.008007
0.012327
0.013064
0.013742
0.013580
0.014095
0.013415
0.012900
0.007063
0.006966
0.006793
0.013935
0.009088
0.007009
0.013542
0.014606
0.012423
0.012816
0.008091
0.007804
0.007637
0.006682
0.008099
0.008338
0.013195
0.012161
0.012726
0.013673
0.007426
0.012985
0.006751
0.007113
0.008664
0.008377
0.006633
0.007004
0.013047
0.013295
0.010046
0.010042
0.007195
0.007811
0.007273
0.010567
0.011272
0.007092
0.007817
0.007555
0.011834
0.012164
0.006726
0.012660
0.011641
0.007053
0.007721
0.012368
0.012101
0.011874
0.006973
0.007146
0.009185
0.008218
0.011637
0.011233
0.010545
0.013370
0.006909
0.007020
0.009617
0.010343
0.007029
0.012383
0.011867
0.009837
0.008949
0.007008
0.010661
0.010035
0.007021
0.011934
0.011572
0.013070
0.014042
0.007001
0.013152
0.013793
0.014168
0.011033
0.011290
0.009734
0.010585
0.010386
0.009427
0.006831
0.010146
0.010926
0.013506
0.013720
0.006971
0.013621
0.014007
0.013252
0.013615
0.006987
0.013394
0.006702
0.013854
0.006908
0.006839
0.012871
0.014497
0.013123
0.012570
0.010790
0.011978
0.011110
0.011394
0.011698
0.008287
0.009353
0.009538
0.008082
0.008961
0.009174
0.007714
0.007272
0.007028
0.007134
0.006646
0.006871
0.014809
0.014574
0.014286
0.014163
0.014045
0.013929
0.007066
0.007255
0.011255
0.011319
0.008738
0.008682
0.007530
0.007347
0.011715
0.011786
0.006780
0.007036
0.008986
0.008948
0.006957
0.007194
0.013497
0.013376
0.011987
0.012060
0.010143
0.010117
0.010471
0.010786
0.010434
0.010738
0.011043
0.011102
0.009382
0.009394
0.007952
0.008069
0.009169
0.009193
0.007738
0.007895
0.007582
0.007726
0.006794
0.006620
0.006789
0.014811
0.014334
0.014129
0.014425
0.014506
0.014553
0.014315
0.006584
0.006992
0.014825
0.014944
0.014116
0.013744
0.013430
0.007031
0.006899
0.007009
0.007149
0.007156
0.007259
0.007954
0.008011
0.013072
0.012897
0.007573
0.007604
0.009647
0.009645
0.010310
0.010318
0.010635
0.010619
0.007328
0.007556
0.008846
0.008875
0.007657
0.007449
0.009640
0.009630
0.010137
0.010089
0.010315
0.010256
0.010588
0.010515
0.008953
0.008914
0.008812
0.008759
0.007017
0.007290
0.012611
0.012489
0.010932
0.010956
0.007405
0.007304
0.007779
0.007842
0.008611
0.008538
0.008602
0.008615
0.009270
0.009282
0.010019
0.010016
0.008026
0.008157
0.008148
0.008195
0.012073
0.012104
0.010784
0.010871
0.008435
0.008341
0.011210
0.011240
0.008410
0.008376
0.011839
0.011877
0.012370
0.012323
0.007164
0.007417
0.009902
0.009874
0.011065
0.011168
0.007790
0.007600
0.009098
0.009123
0.011436
0.011520
0.011554
0.011514
0.006692
0.006895
0.013513
0.013571
0.014305
0.014251
0.006673
0.007054
0.013906
0.013964
0.014871
0.015047
0.006883
0.007120
0.006871
0.007184
0.006957
0.006685
0.013801
0.013689
0.006516
0.006958
0.006874
0.006752
0.006704
0.006808
0.013850
0.014027
0.009832
0.014659
0.014498
0.014977
0.014972
0.007457
0.014681
0.014739
0.014794
0.015043