# vtk DataFile Version 2.0
Unstructured Grid Example
ASCII
DATASET UNSTRUCTURED_GRID
POINTS 2674 float
-0.042518 0.553108 0.019243 
0.452768 0.048395 0.008957 
-0.051946 -0.446892 0.003373 
-0.547232 0.057822 0.013660 
-0.023706 0.489626 4.019243 
0.471580 -0.015088 4.008957 
-0.033134 -0.510374 4.003373 
-0.528420 -0.005660 4.013660 
-0.043697 0.428108 0.017260 
0.327768 0.049573 0.009545 
-0.050768 -0.321892 0.005357 
-0.422232 0.056644 0.013072 
-0.024885 0.364626 4.017260 
0.346580 -0.013909 4.009545 
-0.031956 -0.385374 4.005357 
-0.403420 -0.006839 4.013072 
0.073748 0.479099 4.018632 
0.167276 0.449762 4.017740 
0.253284 0.402742 4.016600 
0.328466 0.339846 4.015256 
0.389933 0.263492 4.013762 
0.435323 0.176613 4.012172 
0.462892 0.082548 4.010550 
0.461053 -0.112542 4.007454 
0.431716 -0.206071 4.006099 
0.384696 -0.292079 4.004944 
0.321800 -0.367261 4.004034 
0.245445 -0.428728 4.003404 
0.158566 -0.474118 4.003077 
0.064502 -0.501686 4.003067 
-0.130589 -0.499847 4.003984 
-0.224117 -0.470510 4.004877 
-0.310125 -0.423490 4.006017 
-0.385307 -0.360594 4.007360 
-0.446774 -0.284240 4.008855 
-0.492164 -0.197361 4.010444 
-0.519733 -0.103296 4.012066 
-0.517893 0.091794 4.015163 
-0.488556 0.185323 4.016517 
-0.441536 0.271330 4.017672 
-0.378640 0.346513 4.018582 
-0.302286 0.407980 4.019213 
-0.215407 0.453370 4.019539 
-0.121342 0.480938 4.019550 
-0.536705 0.155277 0.015163 
-0.507368 0.248805 0.016517 
-0.460348 0.334813 0.017672 
-0.397452 0.409995 0.018582 
-0.321098 0.471462 0.019213 
-0.234219 0.516852 0.019539 
-0.140154 0.544421 0.019550 
0.054936 0.542582 0.018632 
0.148464 0.513244 0.017740 
0.234472 0.466224 0.016600 
0.309654 0.403329 0.015256 
0.371121 0.326974 0.013762 
0.416511 0.240095 0.012172 
0.444080 0.146030 0.010550 
0.442241 -0.049060 0.007454 
0.412904 -0.142588 0.006099 
0.365884 -0.228596 0.004944 
0.302988 -0.303778 0.004034 
0.226634 -0.365245 0.003404 
0.139755 -0.410635 0.003077 
0.045690 -0.438204 0.003067 
-0.149401 -0.436365 0.003984 
-0.242929 -0.407027 0.004877 
-0.328937 -0.360007 0.006017 
-0.404119 -0.297112 0.007360 
-0.465586 -0.220757 0.008855 
-0.510976 -0.133878 0.010444 
-0.538544 -0.039813 0.012066 
-0.042048 0.551521 0.119243 
-0.041578 0.549934 0.219243 
-0.041108 0.548347 0.319243 
-0.040637 0.546760 0.419243 
-0.040167 0.545173 0.519243 
-0.039697 0.543586 0.619243 
-0.039226 0.541999 0.719243 
-0.038756 0.540412 0.819243 
-0.038286 0.538825 0.919243 
-0.037815 0.537238 1.019243 
-0.037345 0.535651 1.119243 
-0.036875 0.534064 1.219243 
-0.036405 0.532477 1.319243 
-0.035934 0.530890 1.419243 
-0.035464 0.529303 1.519243 
-0.034994 0.527715 1.619243 
-0.034523 0.526128 1.719243 
-0.034053 0.524541 1.819243 
-0.033583 0.522954 1.919243 
-0.033112 0.521367 2.019243 
-0.032642 0.519780 2.119243 
-0.032172 0.518193 2.219243 
-0.031702 0.516606 2.319243 
-0.031231 0.515019 2.419243 
-0.030761 0.513432 2.519243 
-0.030291 0.511845 2.619243 
-0.029820 0.510258 2.719243 
-0.029350 0.508671 2.819243 
-0.028880 0.507084 2.919243 
-0.028409 0.505497 3.019243 
-0.027939 0.503910 3.119243 
-0.027469 0.502322 3.219243 
-0.026999 0.500735 3.319243 
-0.026528 0.499148 3.419243 
-0.026058 0.497561 3.519243 
-0.025588 0.495974 3.619243 
-0.025117 0.494387 3.719243 
-0.024647 0.492800 3.819243 
-0.024177 0.491213 3.919243 
-0.546762 0.056235 0.113660 
-0.546292 0.054648 0.213660 
-0.545821 0.053061 0.313660 
-0.545351 0.051474 0.413660 
-0.544881 0.049887 0.513660 
-0.544410 0.048300 0.613660 
-0.543940 0.046713 0.713660 
-0.543470 0.045126 0.813660 
-0.543000 0.043539 0.913660 
-0.542529 0.041952 1.013660 
-0.542059 0.040365 1.113660 
-0.541589 0.038778 1.213660 
-0.541118 0.037190 1.313660 
-0.540648 0.035603 1.413660 
-0.540178 0.034016 1.513660 
-0.539707 0.032429 1.613660 
-0.539237 0.030842 1.713660 
-0.538767 0.029255 1.813660 
-0.538297 0.027668 1.913660 
-0.537826 0.026081 2.013660 
-0.537356 0.024494 2.113660 
-0.536886 0.022907 2.213660 
-0.536415 0.021320 2.313660 
-0.535945 0.019733 2.413660 
-0.535475 0.018146 2.513660 
-0.535004 0.016559 2.613660 
-0.534534 0.014972 2.713660 
-0.534064 0.013385 2.813660 
-0.533594 0.011797 2.913660 
-0.533123 0.010210 3.013660 
-0.532653 0.008623 3.113660 
-0.532183 0.007036 3.213660 
-0.531712 0.005449 3.313660 
-0.531242 0.003862 3.413660 
-0.530772 0.002275 3.513660 
-0.530301 0.000688 3.613660 
-0.529831 -0.000899 3.713660 
-0.529361 -0.002486 3.813660 
-0.528891 -0.004073 3.913660 
-0.051476 -0.448479 0.103373 
-0.051005 -0.450066 0.203373 
-0.050535 -0.451653 0.303373 
-0.050065 -0.453240 0.403373 
-0.049594 -0.454827 0.503373 
-0.049124 -0.456414 0.603373 
-0.048654 -0.458001 0.703373 
-0.048184 -0.459588 0.803373 
-0.047713 -0.461175 0.903373 
-0.047243 -0.462762 1.003373 
-0.046773 -0.464349 1.103373 
-0.046302 -0.465936 1.203373 
-0.045832 -0.467523 1.303373 
-0.045362 -0.469110 1.403373 
-0.044892 -0.470697 1.503373 
-0.044421 -0.472285 1.603373 
-0.043951 -0.473872 1.703373 
-0.043481 -0.475459 1.803373 
-0.043010 -0.477046 1.903373 
-0.042540 -0.478633 2.003373 
-0.042070 -0.480220 2.103373 
-0.041599 -0.481807 2.203373 
-0.041129 -0.483394 2.303373 
-0.040659 -0.484981 2.403373 
-0.040189 -0.486568 2.503373 
-0.039718 -0.488155 2.603373 
-0.039248 -0.489742 2.703373 
-0.038778 -0.491329 2.803373 
-0.038307 -0.492916 2.903373 
-0.037837 -0.494503 3.003373 
-0.037367 -0.496090 3.103373 
-0.036896 -0.497678 3.203373 
-0.036426 -0.499265 3.303373 
-0.035956 -0.500852 3.403373 
-0.035486 -0.502439 3.503373 
-0.035015 -0.504026 3.603373 
-0.034545 -0.505613 3.703373 
-0.034075 -0.507200 3.803373 
-0.033604 -0.508787 3.903373 
0.453238 0.046808 0.108957 
0.453708 0.045221 0.208957 
0.454179 0.043633 0.308957 
0.454649 0.042046 0.408957 
0.455119 0.040459 0.508957 
0.455590 0.038872 0.608957 
0.456060 0.037285 0.708957 
0.456530 0.035698 0.808957 
0.457000 0.034111 0.908957 
0.457471 0.032524 1.008957 
0.457941 0.030937 1.108957 
0.458411 0.029350 1.208957 
0.458882 0.027763 1.308957 
0.459352 0.026176 1.408957 
0.459822 0.024589 1.508957 
0.460293 0.023002 1.608957 
0.460763 0.021415 1.708957 
0.461233 0.019828 1.808957 
0.461703 0.018240 1.908957 
0.462174 0.016653 2.008957 
0.462644 0.015066 2.108957 
0.463114 0.013479 2.208957 
0.463585 0.011892 2.308957 
0.464055 0.010305 2.408957 
0.464525 0.008718 2.508957 
0.464996 0.007131 2.608957 
0.465466 0.005544 2.708957 
0.465936 0.003957 2.808957 
0.466406 0.002370 2.908957 
0.466877 0.000783 3.008957 
0.467347 -0.000804 3.108957 
0.467817 -0.002391 3.208957 
0.468288 -0.003978 3.308957 
0.468758 -0.005565 3.408957 
0.469228 -0.007153 3.508957 
0.469699 -0.008740 3.608957 
0.470169 -0.010327 3.708957 
0.470639 -0.011914 3.808957 
0.471109 -0.013501 3.908957 
-0.408539 0.153580 0.014552 
-0.370224 0.243670 0.015811 
-0.309897 0.320773 0.016764 
-0.231671 0.379636 0.017344 
-0.140874 0.416246 0.017513 
0.053240 0.414416 0.016600 
0.143329 0.376100 0.015580 
0.220433 0.315774 0.014269 
0.279295 0.237547 0.012757 
0.315905 0.146751 0.011145 
0.046410 -0.310029 0.005103 
0.137206 -0.273419 0.005272 
0.215433 -0.214556 0.005853 
0.275760 -0.137453 0.006805 
0.314075 -0.047364 0.008064 
-0.147704 -0.308199 0.006016 
-0.237794 -0.269883 0.007036 
-0.314897 -0.209557 0.008347 
-0.373759 -0.131330 0.009860 
-0.410369 -0.040534 0.011471 
-0.389727 0.090098 4.014552 
-0.351412 0.180188 4.015811 
-0.291085 0.257291 4.016764 
-0.212859 0.316153 4.017344 
-0.122063 0.352763 4.017513 
0.334717 0.083268 4.011145 
0.298107 0.174064 4.012757 
0.239245 0.252291 4.014269 
0.162141 0.312618 4.015580 
0.072052 0.350933 4.016600 
0.065222 -0.373511 4.005103 
0.156018 -0.336901 4.005272 
0.234245 -0.278039 4.005853 
0.294572 -0.200936 4.006805 
0.332887 -0.110846 4.008064 
-0.128892 -0.371681 4.006016 
-0.218982 -0.333366 4.007036 
-0.296085 -0.273039 4.008347 
-0.354947 -0.194812 4.009860 
-0.391557 -0.104016 4.011471 
-0.025355 0.366213 3.917260 
-0.025826 0.367800 3.817260 
-0.026296 0.369387 3.717260 
-0.026766 0.370974 3.617260 
-0.027236 0.372561 3.517260 
-0.027707 0.374148 3.417260 
-0.028177 0.375735 3.317260 
-0.028647 0.377322 3.217260 
-0.029118 0.378910 3.117260 
-0.029588 0.380497 3.017260 
-0.030058 0.382084 2.917260 
-0.030528 0.383671 2.817260 
-0.030999 0.385258 2.717260 
-0.031469 0.386845 2.617260 
-0.031939 0.388432 2.517260 
-0.032410 0.390019 2.417260 
-0.032880 0.391606 2.317260 
-0.033350 0.393193 2.217260 
-0.033821 0.394780 2.117260 
-0.034291 0.396367 2.017260 
-0.034761 0.397954 1.917260 
-0.035231 0.399541 1.817260 
-0.035702 0.401128 1.717260 
-0.036172 0.402715 1.617260 
-0.036642 0.404303 1.517260 
-0.037113 0.405890 1.417260 
-0.037583 0.407477 1.317260 
-0.038053 0.409064 1.217260 
-0.038524 0.410651 1.117260 
-0.038994 0.412238 1.017260 
-0.039464 0.413825 0.917260 
-0.039934 0.415412 0.817260 
-0.040405 0.416999 0.717260 
-0.040875 0.418586 0.617260 
-0.041345 0.420173 0.517260 
-0.041816 0.421760 0.417260 
-0.042286 0.423347 0.317260 
-0.042756 0.424934 0.217260 
-0.043227 0.426521 0.117260 
0.328238 0.047986 0.109545 
0.328708 0.046399 0.209545 
0.329179 0.044812 0.309545 
0.329649 0.043225 0.409545 
0.330119 0.041638 0.509545 
0.330590 0.040051 0.609545 
0.331060 0.038464 0.709545 
0.331530 0.036877 0.809545 
0.332000 0.035290 0.909545 
0.332471 0.033703 1.009545 
0.332941 0.032115 1.109545 
0.333411 0.030528 1.209545 
0.333882 0.028941 1.309545 
0.334352 0.027354 1.409545 
0.334822 0.025767 1.509545 
0.335293 0.024180 1.609545 
0.335763 0.022593 1.709545 
0.336233 0.021006 1.809545 
0.336703 0.019419 1.909545 
0.337174 0.017832 2.009545 
0.337644 0.016245 2.109545 
0.338114 0.014658 2.209545 
0.338585 0.013071 2.309545 
0.339055 0.011484 2.409545 
0.339525 0.009897 2.509545 
0.339996 0.008310 2.609545 
0.340466 0.006722 2.709545 
0.340936 0.005135 2.809545 
0.341406 0.003548 2.909545 
0.341877 0.001961 3.009545 
0.342347 0.000374 3.109545 
0.342817 -0.001213 3.209545 
0.343288 -0.002800 3.309545 
0.343758 -0.004387 3.409545 
[...]
POINT_DATA 2674
SCALARS u float 1
LOOKUP_TABLE default
0.014156
0.013658
0.014890
0.015197
0.006457
0.006688
0.006985
0.006415
0.014198
0.013842
0.014750
0.014997
0.006410
0.006617
0.006812
0.006411
0.006460
0.006464
0.006472
0.006488
0.006517
0.006560
0.006618
0.006764
0.006842
0.006913
0.006972
0.007012
0.007028
0.007019
0.006928
0.006853
0.006767
0.006677
0.006591
0.006515
0.006456
0.006392
0.006387
0.006394
0.006408
0.006425
0.006440
0.006451
0.015127
0.015035
0.014923
0.014793
0.014646
0.014488
0.014323
0.013996
0.013851
0.013728
0.013635
0.013579
0.013564
0.013590
0.013763
0.013899
0.014057
0.014230
0.014407
0.014581
0.014744
0.015016
0.015117
0.015194
0.015244
0.015269
0.015269
0.015245
0.013862
0.013569
0.013278
0.012989
0.012702
0.012417
0.012135
0.011855
0.011578
0.011303
0.011032
0.010765
0.010501
0.010240
0.009985
0.009733
0.009487
0.009246
0.009010
0.008781
0.008559
0.008343
0.008136
0.007937
0.007747
0.007567
0.007397
0.007238
0.007092
0.006958
0.006838
0.006731
0.006640
0.006564
0.006504
0.006461
0.006434
0.006425
0.006432
0.014897
0.014599
0.014301
0.014006
0.013712
0.013419
0.013129
0.012840
0.012554
0.012270
0.011988
0.011709
0.011433
0.011160
0.010890
0.010623
0.010360
0.010102
0.009847
0.009598
0.009353
0.009114
0.008881
0.008654
0.008434
0.008222
0.008017
0.007822
0.007636
0.007460
0.007294
0.007141
0.006999
0.006871
0.006756
0.006657
0.006572
0.006503
0.006450
0.014598
0.014308
0.014020
0.013733
0.013449
0.013167
0.012887
0.012610
0.012335
0.012063
0.011795
0.011529
0.011267
0.011009
0.010755
0.010505
0.010260
0.010020
0.009785
0.009556
0.009333
0.009116
0.008907
0.008705
0.008511
0.008326
0.008150
0.007985
0.007829
0.007685
0.007553
0.007433
0.007326
0.007233
0.007154
0.007089
0.007040
0.007006
0.006987
0.013369
0.013081
0.012795
0.012512
0.012231
0.011953
0.011677
0.011405
0.011135
0.010869
0.010607
0.010349
0.010095
0.009845
0.009601
0.009361
0.009128
0.008901
0.008681
0.008467
0.008262
0.008065
0.007877
0.007699
0.007531
0.007374
0.007229
0.007097
0.006977
0.006872
0.006781
0.006706
0.006646
0.006602
0.006575
0.006564
0.006570
0.006593
0.006632
0.014919
0.014812
0.014679
0.014526
0.014362
0.014044
0.013915
0.013823
0.013777
0.013784
0.014598
0.014429
0.014255
0.014090
0.013948
0.014876
0.014971
0.015031
0.015055
0.015043
0.006384
0.006375
0.006379
0.006388
0.006399
0.006552
0.006499
0.006461
0.006436
0.006421
0.006840
0.006838
0.006808
0.006755
0.006688
0.006758
0.006685
0.006604
0.006525
0.006459
0.006388
0.006384
0.006397
0.006428
0.006475
0.006538
0.006618
0.006713
0.006822
0.006946
0.007084
0.007233
0.007395
0.007568
0.007751
0.007943
0.008145
0.008355
0.008572
0.008797
0.009028
0.009266
0.009509
0.009757
0.010010
0.010267
0.010529
0.010794
0.011063
0.011336
0.011611
0.011889
0.012170
0.012453
0.012739
0.013027
0.013317
0.013609
0.013902
0.013551
0.013262
0.012974
0.012689
0.012406
0.012126
0.011848
0.011573
0.011301
0.011032
0.010767
0.010505
0.010248
0.009995
0.009746
0.009503
0.009265
0.009033
0.008807
0.008589
0.008377
0.008174
0.007979
0.007793
0.007618
0.007453
0.007299
0.007157
0.007029
0.006913
0.006812
0.006726
0.006655
0.006600
0.006561
0.006539
0.006533
0.006545
0.006573
0.006812
0.006827
0.006859
0.006907
0.006970
0.007048
0.007140
0.007247
0.007367
0.007499
0.007644
0.007800
0.007967
0.008144
0.008330
0.008525
0.008729
0.008940
0.009158
0.009383
0.009614
0.009851
0.010093
0.010340
0.010592
0.010847
0.011107
0.011371
0.011638
0.011909
0.012182
0.012458
0.012737
0.013018
0.013302
0.013588
0.013875
0.014165
0.014457
0.014698
0.014401
0.014105
0.013810
0.013517
0.013226
0.012937
0.012651
0.012366
0.012084
0.011804
0.011527
0.011253
0.010982
0.010714
0.010451
0.010191
0.009935
0.009684
0.009438
0.009197
0.008962
0.008734
0.008512
0.008297
0.008091
0.007892
0.007703
0.007524
0.007356
0.007198
0.007053
0.006921
0.006802
0.006698
0.006608
0.006535
0.006477
0.006436
0.007392
0.008545
0.007733
0.007915
0.008092
0.009734
0.010751
0.011000
0.010243
0.006770
0.006951
0.007047
0.007148
0.006804
0.006865
0.012100
0.011835
0.013167
0.012374
0.012636
0.013685
0.011288
0.006692
0.013742
0.014227
0.006828
0.006821
0.006695
0.013466
0.013793
0.009838
0.010317
0.007024
0.006761
0.008970
0.010046
0.010688
0.007502
0.007175
0.006959
0.006714
0.011175
0.010522
0.008514
0.007302
0.007000
0.008705
0.010491
0.009021
0.007645
0.011994
0.007305
0.007181
0.008275
0.010966
0.006883
0.009486
0.012478
0.007434
0.007031
0.008445
0.008116
0.009234
0.008718
0.012908
0.007088
0.006809
0.013402
0.006779
0.013438
0.013761
0.014015
0.006807
0.006733
0.006780
0.006835
0.006628
0.013466
0.014143
0.009317
0.013145
0.013780
0.006847
0.006648
0.013436
0.013156
0.007253
0.006815
0.006750
0.012335
0.012650
0.006770
0.006882
0.012952
0.013168
0.006966
0.007120
0.007543
0.007442
0.006906
0.006677
0.010504
0.010263
0.006851
0.006707
0.008975
0.008745
0.009431
0.009891
0.010092
0.010736
0.007747
0.007232
0.007221
0.006800
0.008500
0.007911
0.008726
0.008499
0.009124
0.008484
0.008934
0.008312
0.009680
0.010029
0.011497
0.011858
0.006946
0.006619
0.012146
0.012806
0.012129
0.012317
0.011107
0.011708
0.010519
0.010759
0.011625
0.012253
0.011305
0.011988
0.009878
0.010560
0.011842
0.012564
0.010269
0.010948
0.010511
0.011206
0.010771
0.011414
0.009677
0.010321
0.007773
0.007510
0.011279
0.011529
0.009316
0.009604
0.007619
0.007114
0.012665
0.012994
0.007012
0.006656
0.008717
0.008112
0.007225
0.007064
0.006954
0.006797
0.011872
0.012155
0.008505
0.008364
0.007321
0.006871
0.007448
0.007281
0.007950
0.007668
0.009985
0.010230
0.008346
0.007751
0.007121
0.006727
0.008160
0.007656
0.007835
0.007361
0.007029
0.006882
0.006883
0.006609
0.008258
0.012872
0.013611
0.013704
0.014439
0.013961
0.007131
0.007362
0.011545
0.010966
0.011298
0.006830
0.008930
0.010276
0.010738
0.010505
0.010732
0.010992
0.012517
0.013209
0.012925
0.006852
0.006586
0.006816
0.006719
0.009963
0.009540
0.008224
0.007903
0.007599
0.008731
0.009528
0.009747
0.007782
0.008065
0.012916
0.012410
0.008256
0.008091
0.009010
0.009195
0.009450
0.010097
0.007977
0.007482
0.009826
0.009213
0.009399
0.009171
0.008962
0.009647
0.006619
0.006826
0.008813
0.009477
0.006907
0.008192
0.007196
0.007728
0.007964
0.007361
0.009412
0.009144
0.009727
0.010508
0.006385
0.006405
0.006569
0.006788
0.006500
0.006442
0.011632
0.012215
0.012561
0.013219
0.008582
0.010914
0.006391
0.006435
0.006402
0.013487
0.013700
0.006482
0.013146
0.013293
0.007276
0.011012
0.006517
0.007262
0.006537
0.011180
0.009226
0.010753
0.006811
0.010909
0.006774
0.009785
0.009385
0.006970
0.009446
0.006621
0.006896
0.006614
0.009579
0.006406
0.006446
0.009009
0.009145
0.012208
0.012403
0.012548
0.012752
0.007633
0.007825
0.008436
0.009836
0.011822
0.011550
0.007557
0.007717
0.008320
0.010023
0.008515
0.008644
0.011993
0.011743
0.006398
0.012952
0.006375
0.006418
0.013371
0.013545
0.006387
0.013345
0.013615
0.006381
0.006485
0.012870
0.013090
0.006381
0.006473
0.007624
0.007677
0.012002
0.012098
0.008961
0.009009
0.008281
0.008345
0.012684
0.012798
0.006705
0.006716
0.007149
0.007124
0.011395
0.011482
0.006773
0.007150
0.007046
0.007306
0.007219
0.011262
0.011474
0.009934
0.010159
0.006428
0.012139
0.012408
0.009077
0.008892
0.011478
0.011744
0.010661
0.009401
0.009478
0.010661
0.006964
0.010918
0.006616
0.006609
0.006453
0.006495
0.006687
0.006700
0.006607
0.006612
0.006423
0.006439
0.008448
0.008514
0.009136
0.009338
0.007464
0.007338
0.009364
0.009573
0.011127
0.007410
0.009621
0.009893
0.009163
0.009240
0.010935
0.011026
0.008598
0.008429
0.011697
0.011791
0.012358
0.012462
0.006865
0.006832
0.008359
0.008206
0.009605
0.009713
0.008649
0.008823
0.011805
0.012068
0.010115
0.010369
0.008706
0.008804
0.008075
0.007940
0.007562
0.007852
0.007720
0.011149
0.006389
0.006408
0.006429
0.006383
0.012720
0.013006
0.006377
0.006398
0.006397
0.013588
0.013879
0.006540
0.013583
0.008379
0.010776
0.010678
0.011242
0.011124
0.007284
0.007270
0.011889
0.006635
0.007520
0.007452
0.006471
0.006478
0.007893
0.007827
0.006692
0.006692
0.010400
0.010410
0.006541
0.006541
0.012442
0.012718
0.013105
0.013378
0.008799
0.012903
0.013026
0.008083
0.008166
0.011342
0.011006
0.007041
0.010461
0.010585
0.009954
0.007110
0.010202
0.010173
0.007001
0.006409
0.006486
0.009894
0.007461
0.006481
0.006461
0.006860
0.006787
0.007384
0.010564
0.007599
0.008660
0.008419
0.007969
0.010794
0.009976
0.011085
0.009730
0.010247
0.011357
0.010549
0.006536
0.006980
0.006821
0.006597
0.013373
0.012702
0.013016
0.011877
0.009185
0.014042
0.006393
0.006408
0.014341
0.014210
0.006387
0.006391
0.014643
0.011892
0.011514
0.007773
0.008120
0.013322
0.009516
0.011627
0.012215
0.011236
0.009240
0.011829
0.006447
0.013750
0.008782
0.009692
0.010343
0.012514
0.013063
0.009973
0.009092
0.009326
0.012644
0.012150
0.006520
0.007256
0.010129
0.011112
0.012823
0.013505
0.006500
0.006719
0.007474
0.006624
0.010740
0.009778
0.012457
0.006598
0.006740
0.007078
0.007282
0.009389
0.008975
0.006793
0.014173
0.006400
0.006434
0.013875
0.013652
0.006474
0.006387
0.014531
0.013873
0.006428
0.009418
0.006475
0.013590
0.013729
0.006465
0.008441
0.008620
0.008971
0.009104
0.006680
0.012927
0.012728
0.009293
0.009099
0.008914
0.009815
0.009299
0.009491
0.009688
0.007223
0.007336
0.007477
0.007628
0.007557
0.007897
0.012442
0.011862
0.014504
0.006383
0.007352
0.007696
0.007077
0.013663
0.007197
0.007558
0.007167
0.006473
0.006424
0.013937
0.006427
0.013965
0.009592
0.009109
0.007077
0.007399
0.008520
0.008990
0.007237
0.006945
0.011088
0.011330
0.007992
0.008162
0.010066
0.009542
0.010853
0.010369
0.008214
0.008599
0.013518
0.012893
0.012150
0.011568
0.012609
0.012422
0.008707
0.008858
0.011027
0.010877
0.011146
0.010567
0.013256
0.006588
0.006629
0.008346
0.008821
0.011837
0.011254
0.011460
0.010907
0.009793
0.010331
0.012939
0.012329
0.010048
0.010549
0.009940
0.009759
0.010824
0.010619
0.008203
0.008390
0.013205
0.013024
0.006700
0.006740
0.006516
0.006815
0.011774
0.011615
0.006674
0.006850
0.006948
0.006962
0.007780
0.007953
0.006825
0.013621
0.006475
0.013360
0.006530
0.013838
0.013482
0.006444
0.006519
0.011594
0.014107
0.006392
0.006404
0.014764
0.008500
0.008831
0.014169
0.006403
0.009901
0.009543
0.008734
0.009231
0.007653
0.007772
0.011593
0.011401
0.011784
0.012007
0.010507
0.010252
0.006927
0.010193
0.009999
0.007115
0.008187
0.007486
0.012083
0.012710
0.007968
0.008344
0.014359
0.006383
0.012419
0.012109
0.012254
0.006711
0.007395
0.007082
0.007795
0.006840
0.007742
0.013197
0.013119
0.009177
0.008656
0.008243
0.008924
0.010491
0.011459
0.010199
0.011692
0.010736
0.011181
0.006820
0.007600
0.007417
0.007292
0.006886
0.007020
0.013127
0.012624
0.013461
0.013792
0.009605
0.012128
0.006577
0.014563
0.014469
0.006723
0.006508
0.014833
0.014703
0.006726
0.007060
0.006915
0.008014
0.012180
0.007960
0.012093
0.006593
0.010257
0.010744
0.011896
0.013942
0.006964
0.006794
0.011810
0.010689
0.010215
0.013865
0.007677
0.010495
0.006868
0.007582
0.006709
0.010447
0.010031
0.009995
0.011027
0.010965
0.008443
0.008631
0.009304
0.011382
0.013010
0.012722
0.008397
0.008612
0.009314
0.011312
0.009527
0.009508
0.012916
0.012619
0.014467
0.006645
0.006663
0.014112
0.006743
0.006782
0.006503
0.014633
0.014457
0.006561
0.006918
0.008536
0.008551
0.010017
0.010007
0.011023
0.011047
0.009291
0.009288
0.006841
0.012558
0.012504
0.007894
0.007858
0.013748
0.013596
0.006743
0.007843
0.007767
0.007974
0.007901
0.006655
0.012375
0.012260
0.012865
0.012822
0.011012
0.010916
0.006654
0.006801
0.006864
0.014249
0.014168
0.014039
0.013886
0.006744
0.012602
0.012454
0.007454
0.007504
0.009914
0.009971
0.011571
0.011619
0.012878
0.012730
0.010501
0.010477
0.011484
0.011588
0.007120
0.007031
0.007296
0.007154
0.007737
0.007688
0.013147
0.013002
0.007018
0.006815
0.007144
0.006967
0.007538
0.007433
0.007248
0.007173
0.009478
0.009471
0.010480
0.010402
0.010226
0.010158
0.008093
0.008063
0.012073
0.011948
0.010742
0.010655
0.010245
0.010225
0.012089
0.012038
0.010752
0.010726
0.011257
0.011149
0.009353
0.009380
0.011301
0.011269
0.006990
0.006908
0.009115
0.009127
0.009694
0.009656
0.009740
0.009725
0.008836
0.008830
0.013291
0.013217
0.008466
0.008553
0.008530
0.006679
0.006761
0.006833
0.010914
0.006656
0.014341
0.014179
0.006456
0.014844
0.014651
0.006781
0.006807
0.006910
0.012406
0.009384
0.011890
0.011863
0.007399
0.007321
0.007156
0.007550
0.007609
0.008783
0.008774
0.008140
0.008154
0.008355
0.008337
0.013303
0.013449
0.012293
0.012242
0.013552
0.013628
0.009823
0.007916
0.009062
0.009063
0.007423
0.007289
0.013078
0.013025
0.014793
0.014749
0.006580
0.007785
0.008048
0.008008
0.007593
0.007473
0.008239
0.008252
0.007744
0.007644
0.008293
0.008218
0.007203
0.007079
0.011388
0.012904
0.011645
0.011098
0.011930
0.010733
0.009268
0.008943
0.008719
0.009778
0.009525
0.010117
0.010428
0.008295
0.007871
0.008089
0.007674
0.007307
0.007473
0.006685
0.006377
0.006588
0.006403
0.006434
0.012821
0.006389
0.013130
0.006546
0.013263
0.012605
0.012864
0.006411
0.006387
0.012404
0.012673
0.008776
0.008571
0.010930
0.010675
0.008739
0.008954
0.009274
0.009486
0.006733
0.006791
0.006468
0.006476
0.006638
0.006589
0.006524
0.006551
0.008572
0.008368
0.006707
0.006646
0.008316
0.008121
0.011236
0.011552
0.011704
0.011454
0.011226
0.010967
0.010699
0.010441
0.009014
0.009233
0.010099
0.009831
0.009794
0.009562
0.007222
0.007102
0.008074
0.007898
0.007298
0.007433
0.007578
0.007712
0.007101
0.006985
0.006939
0.006844
0.006394
0.006463
0.006400
0.006381
0.006399
0.012877
0.013099
0.013040
0.012545
0.012271
0.006398
0.006390
0.012370
0.012757
0.008822
0.008936
0.011721
0.011607
0.008266
0.008158
0.008678
0.008407
0.007078
0.007225
0.008522
0.008259
0.006512
0.006549
0.006540
0.006539
0.008923
0.008647
0.008683
0.008557
0.006886
0.006922
0.011213
0.011064
0.007265
0.007197
0.007953
0.008040
0.006760
0.006760
0.010830
0.010964
0.007371
0.007438
0.007827
0.007727
0.006593
0.006662
0.008302
0.008054
0.009249
0.009364
0.009754
0.009914
0.009081
0.009218
0.009194
0.008922
0.011424
0.011059
0.007467
0.007292
0.006622
0.006666
0.006928
0.006830
0.006707
0.006775
0.010869
0.011231
0.007426
0.007617
0.008097
0.007860
0.010565
0.010265
0.009484
0.009179
0.010952
0.010595
0.010494
0.010627
0.007704
0.007930
0.007610
0.007538
0.011651
0.011253
0.011284
0.011405
0.010351
0.010046
0.010116
0.010009
0.009490
0.009609
0.009730
0.009420
0.007303
0.007147
0.007034
0.007094
0.012065
0.011894
0.006499
0.006470
0.012896
0.012570
0.012508
0.012362
0.006417
0.006451
0.012155
0.012417
0.006594
0.006616
0.006497
0.012668
0.012786
0.006378
0.006388
0.008500
0.006507
0.006424
0.013211
0.013427
0.013142
0.006419
0.006579
0.013458
0.013028
0.008164
0.008023
0.008362
0.008453
0.012114
0.012233
0.012405
0.012022
0.006823
0.006434
0.013670
0.013290
0.006455
0.006515
0.006486
0.013401
0.007131
0.006969
0.011725
0.012055
0.011504
0.011882
0.007087
0.006960
0.006484
0.006401
0.012727
0.013139
0.010022
0.009691
0.010572
0.010201
0.010309
0.009957
0.006430
0.006396
0.007700
0.007882
0.006413
0.006409
0.006418
0.013469
0.006523
0.007746
0.007559
0.006429
0.006421
0.006685
0.007452
0.007590
0.011726
0.011961
0.006379
0.006422
0.006437
0.006666
0.012178
0.011901
0.012176
0.011769
0.007793
0.007577
0.006400
0.013354
0.006477
0.010792
0.010408
0.006424
0.006438
0.006464
0.006698
0.010239
0.010426
0.006848
0.006750
0.010336
0.010250
0.010014
0.010239
0.006459
0.013427
0.006540
0.006439
0.013782
0.013455
0.011193
0.011415
0.006443
0.012070
0.012392
0.010787
0.009359
0.011626
0.009590
0.009804
0.011020
0.011307
0.010275
0.008753
0.007746
0.008922
0.007533
0.008305
0.008138
0.008504
0.007867
0.007231
0.007322
0.007155
0.006994
0.007060
0.007017
0.006762
0.014353
0.013345
0.006761
0.010746
0.011526
0.011758
0.011026
0.007769
0.008291
0.012671
0.012126
0.007173
0.006796
0.012540
0.011772
0.012051
0.011301
0.010126
0.009442
0.009621
0.009000
0.007919
0.008468
0.007100
0.007559
0.006947
0.007352
0.007103
0.006775
0.013286
0.012564
0.008056
0.008720
0.007237
0.006859
0.008179
0.007593
0.008743
0.009386
0.009810
0.010407
0.012241
0.011597
0.009850
0.009217
0.010925
0.010353
0.009074
0.008471
0.007466
0.008003
0.008794
0.008283
0.007848
0.007372
0.007681
0.007256
0.007001
0.007490
0.006938
0.007038
0.006920
0.012654
0.006705
0.007031
0.006864
0.006883
0.009887
0.009515
0.007043
0.010534
0.010796
0.012659
0.013055
0.012892
0.011939
0.007687
0.007451
0.007668
0.007957
0.009061
0.008788
0.007496
0.008272
0.008205
0.008547
0.008596
0.009475
0.008157
0.007391
0.008406
0.009292
0.007258
0.007968
0.010273
0.011197
0.007971
0.008815
0.007851
0.008680
0.012201
0.011221
0.012372
0.011422
0.012016
0.011042
0.007114
0.006929
0.010729
0.011062
0.010890
0.011422
0.010793
0.011757
0.007218
0.007005
0.007648
0.008444
0.010526
0.011514
0.007566
0.007386
0.007935
0.008221
0.007239
0.006715
0.008806
0.008521
0.010184
0.009750
0.010290
0.010563
0.007266
0.007486
0.009356
0.009050
0.009944
0.010912
0.010094
0.009174
0.009589
0.009280
0.008791
0.009632
0.007131
0.007394
0.007466
0.006844
0.006928
0.007578
0.008157
0.008992
0.007106
0.007861
0.010030
0.010288
0.013385
0.012393
0.006666
0.007157
0.007078
0.014351
0.007348
0.006780
0.007090
0.012343
0.012597
0.006842
0.006680
0.006662
0.006894
0.006978
0.006774
0.008007
0.012327
0.013064
0.013742
0.013580
0.014095
0.013415
0.012900
0.007063
0.006966
0.006793
0.013935
0.009088
0.007009
0.013542
0.014606
0.012423
0.012816
0.008091
0.007804
0.007637
0.006682
0.008099
0.008338
0.013195
0.012161
0.012726
0.013673
0.007426
0.012985
0.006751
0.007113
0.008664
0.008377
0.006633
0.007004
0.013047
0.013295
0.010046
0.010042
0.007195
0.007811
0.007273
0.010567
0.011272
0.007092
0.007817
0.007555
0.011834
0.012164
0.006726
0.012660
0.011641
0.007053
0.007721
0.012368
0.012101
0.011874
0.006973
0.007146
0.009185
0.008218
0.011637
0.011233
0.010545
0.013370
0.006909
0.007020
0.009617
0.010343
0.007029
0.012383
0.011867
0.009837
0.008949
0.007008
0.010661
0.010035
0.007021
0.011934
0.011572
0.013070
0.014042
0.007001
0.013152
0.013793
0.014168
0.011033
0.011290
0.009734
0.010585
0.010386
0.009427
0.006831
0.010146
0.010926
0.013506
0.013720
0.006971
0.013621
0.014007
0.013252
0.013615
0.006987
0.013394
0.006702
0.013854
0.006908
0.006839
0.012871
0.014497
0.013123
0.012570
0.010790
0.011978
0.011110
0.011394
0.011698
0.008287
0.009353
0.009538
0.008082
0.008961
0.009174
0.007714
0.007272
0.007028
0.007134
0.006646
0.006871
0.014809
0.014574
0.014286
0.014163
0.014045
0.013929
0.007066
0.007255
0.011255
0.011319
0.008738
0.008682
0.007530
0.007347
0.011715
0.011786
0.006780
0.007036
0.008986
0.008948
0.006957
0.007194
0.013497
0.013376
0.011987
0.012060
0.010143
0.010117
0.010471
0.010786
0.010434
0.010738
0.011043
0.011102
0.009382
0.009394
0.007952
0.008069
0.009169
0.009193
0.007738
0.007895
0.007582
0.007726
0.006794
0.006620
0.006789
0.014811
0.014334
0.014129
0.014425
0.014506
0.014553
0.014315
0.006584
0.006992
0.014825
0.014944
0.014116
0.013744
0.013430
0.007031
0.006899
0.007009
0.007149
0.007156
0.007259
0.007954
0.008011
0.013072
0.012897
0.007573
0.007604
0.009647
0.009645
0.010310
0.010318
0.010635
0.010619
0.007328
0.007556
0.008846
0.008875
0.007657
0.007449
0.009640
0.009630
0.010137
0.010089
0.010315
0.010256
0.010588
0.010515
0.008953
0.008914
0.008812
0.008759
0.007017
0.007290
0.012611
0.012489
0.010932
0.010956
0.007405
0.007304
0.007779
0.007842
0.008611
0.008538
0.008602
0.008615
0.009270
0.009282
0.010019
0.010016
0.008026
0.008157
0.008148
0.008195
0.012073
0.012104
0.010784
0.010871
0.008435
0.008341
0.011210
0.011240
0.008410
0.008376
0.011839
0.011877
0.012370
0.012323
0.007164
0.007417
0.009902
0.009874
0.011065
0.011168
0.007790
0.007600
0.009098
0.009123
0.011436
0.011520
0.011554
0.011514
0.006692
0.006895
0.013513
0.013571
0.014305
0.014251
0.006673
0.007054
0.013906
0.013964
0.014871
0.015047
0.006883
0.007120
0.006871
0.007184
0.006957
0.006685
0.013801
0.013689
0.006516
0.006958
0.006874
0.006752
0.006704
0.006808
0.013850
0.014027
0.009832
0.014659
0.014498
0.014977
0.014972
0.007457
0.014681
0.014739
0.014794
0.015043