# vtk DataFile Version 2.0
Unstructured Grid Example
ASCII
DATASET UNSTRUCTURED_GRID
POINTS 2674 float
0.019505 0.475637 -0.008828 
0.521668 -0.022201 -0.004109 
0.023830 -0.524363 -0.001547 
-0.478332 -0.026526 -0.006266 
0.010875 0.504759 3.991172 
0.513038 0.006921 3.995891 
0.015200 -0.495241 3.998453 
-0.486962 0.002597 3.993734 
0.020046 0.350637 -0.007918 
0.396668 -0.022741 -0.004379 
0.023289 -0.399363 -0.002457 
-0.353332 -0.025985 -0.005997 
0.011416 0.379759 3.992082 
0.388038 0.006381 3.995621 
0.014660 -0.370241 3.997543 
-0.361962 0.003137 3.994003 
0.108462 0.495574 3.991453 
0.202382 0.467526 3.991862 
0.289025 0.421695 3.992385 
0.365062 0.359842 3.993001 
0.427571 0.284342 3.993687 
0.474150 0.198099 3.994416 
0.503008 0.104425 3.995160 
0.503852 -0.090665 3.996581 
0.475805 -0.184585 3.997202 
0.429974 -0.271228 3.997732 
0.368120 -0.347265 3.998149 
0.292621 -0.409774 3.998439 
0.206377 -0.456353 3.998588 
0.112704 -0.485212 3.998593 
-0.082387 -0.486055 3.998172 
-0.176306 -0.458008 3.997763 
-0.262949 -0.412177 3.997240 
-0.338987 -0.350323 3.996624 
-0.401496 -0.274824 3.995938 
-0.448075 -0.188580 3.995209 
-0.476933 -0.094907 3.994465 
-0.477777 0.100183 3.993044 
-0.449730 0.194103 3.992423 
-0.403899 0.280746 3.991893 
-0.342045 0.356783 3.991476 
-0.266545 0.419292 3.991186 
-0.180302 0.465871 3.991036 
-0.086628 0.494730 3.991032 
-0.469147 0.071061 -0.006956 
-0.441100 0.164981 -0.007577 
-0.395269 0.251624 -0.008107 
-0.333415 0.327661 -0.008524 
-0.257916 0.390170 -0.008814 
-0.171672 0.436749 -0.008964 
-0.077998 0.465607 -0.008968 
0.117092 0.466451 -0.008547 
0.211011 0.438404 -0.008138 
0.297655 0.392573 -0.007615 
0.373692 0.330719 -0.006999 
0.436201 0.255220 -0.006313 
0.482780 0.168976 -0.005584 
0.511638 0.075303 -0.004840 
0.512482 -0.119788 -0.003419 
0.484435 -0.213707 -0.002798 
0.438604 -0.300350 -0.002268 
0.376750 -0.376388 -0.001851 
0.301251 -0.438897 -0.001561 
0.215007 -0.485476 -0.001412 
0.121334 -0.514334 -0.001407 
-0.073757 -0.515178 -0.001828 
-0.167676 -0.487131 -0.002237 
-0.254320 -0.441299 -0.002760 
-0.330357 -0.379446 -0.003376 
-0.392866 -0.303946 -0.004062 
-0.439445 -0.217703 -0.004791 
-0.468303 -0.124029 -0.005535 
0.019289 0.476365 0.091172 
0.019074 0.477093 0.191172 
0.018858 0.477821 0.291172 
0.018642 0.478549 0.391172 
0.018426 0.479277 0.491172 
0.018211 0.480005 0.591172 
0.017995 0.480733 0.691172 
0.017779 0.481461 0.791172 
0.017563 0.482189 0.891172 
0.017348 0.482917 0.991172 
0.017132 0.483645 1.091172 
0.016916 0.484373 1.191172 
0.016700 0.485101 1.291172 
0.016485 0.485830 1.391172 
0.016269 0.486558 1.491172 
0.016053 0.487286 1.591172 
0.015837 0.488014 1.691172 
0.015622 0.488742 1.791172 
0.015406 0.489470 1.891172 
0.015190 0.490198 1.991172 
0.014974 0.490926 2.091172 
0.014759 0.491654 2.191172 
0.014543 0.492382 2.291172 
0.014327 0.493110 2.391172 
0.014111 0.493838 2.491172 
0.013896 0.494566 2.591172 
0.013680 0.495294 2.691172 
0.013464 0.496022 2.791172 
0.013248 0.496750 2.891172 
0.013033 0.497478 2.991172 
0.012817 0.498207 3.091172 
0.012601 0.498935 3.191172 
0.012385 0.499663 3.291172 
0.012170 0.500391 3.391172 
0.011954 0.501119 3.491172 
0.011738 0.501847 3.591172 
0.011522 0.502575 3.691172 
0.011307 0.503303 3.791172 
0.011091 0.504031 3.891172 
-0.478548 -0.025798 0.093734 
-0.478764 -0.025070 0.193734 
-0.478980 -0.024342 0.293734 
-0.479195 -0.023614 0.393734 
-0.479411 -0.022885 0.493734 
-0.479627 -0.022157 0.593734 
-0.479843 -0.021429 0.693734 
-0.480058 -0.020701 0.793734 
-0.480274 -0.019973 0.893734 
-0.480490 -0.019245 0.993734 
-0.480706 -0.018517 1.093734 
-0.480921 -0.017789 1.193734 
-0.481137 -0.017061 1.293734 
-0.481353 -0.016333 1.393734 
-0.481569 -0.015605 1.493734 
-0.481784 -0.014877 1.593734 
-0.482000 -0.014149 1.693734 
-0.482216 -0.013421 1.793734 
-0.482432 -0.012693 1.893734 
-0.482647 -0.011965 1.993734 
-0.482863 -0.011237 2.093734 
-0.483079 -0.010508 2.193734 
-0.483295 -0.009780 2.293734 
-0.483510 -0.009052 2.393734 
-0.483726 -0.008324 2.493734 
-0.483942 -0.007596 2.593734 
-0.484158 -0.006868 2.693734 
-0.484373 -0.006140 2.793734 
-0.484589 -0.005412 2.893734 
-0.484805 -0.004684 2.993734 
-0.485021 -0.003956 3.093734 
-0.485236 -0.003228 3.193734 
-0.485452 -0.002500 3.293734 
-0.485668 -0.001772 3.393734 
-0.485884 -0.001044 3.493734 
-0.486099 -0.000316 3.593734 
-0.486315 0.000412 3.693734 
-0.486531 0.001140 3.793734 
-0.486747 0.001869 3.893734 
0.023614 -0.523635 0.098453 
0.023399 -0.522907 0.198453 
0.023183 -0.522179 0.298453 
0.022967 -0.521451 0.398453 
0.022751 -0.520723 0.498453 
0.022536 -0.519995 0.598453 
0.022320 -0.519267 0.698453 
0.022104 -0.518539 0.798453 
0.021888 -0.517811 0.898453 
0.021673 -0.517083 0.998453 
0.021457 -0.516355 1.098453 
0.021241 -0.515627 1.198453 
0.021025 -0.514899 1.298453 
0.020810 -0.514170 1.398453 
0.020594 -0.513442 1.498453 
0.020378 -0.512714 1.598453 
0.020162 -0.511986 1.698453 
0.019947 -0.511258 1.798453 
0.019731 -0.510530 1.898453 
0.019515 -0.509802 1.998453 
0.019299 -0.509074 2.098453 
0.019084 -0.508346 2.198453 
0.018868 -0.507618 2.298453 
0.018652 -0.506890 2.398453 
0.018436 -0.506162 2.498453 
0.018221 -0.505434 2.598453 
0.018005 -0.504706 2.698453 
0.017789 -0.503978 2.798453 
0.017573 -0.503250 2.898453 
0.017358 -0.502522 2.998453 
0.017142 -0.501793 3.098453 
0.016926 -0.501065 3.198453 
0.016710 -0.500337 3.298453 
0.016495 -0.499609 3.398453 
0.016279 -0.498881 3.498453 
0.016063 -0.498153 3.598453 
0.015847 -0.497425 3.698453 
0.015632 -0.496697 3.798453 
0.015416 -0.495969 3.898453 
0.521452 -0.021473 0.095891 
0.521236 -0.020745 0.195891 
0.521020 -0.020017 0.295891 
0.520805 -0.019289 0.395891 
0.520589 -0.018561 0.495891 
0.520373 -0.017833 0.595891 
0.520157 -0.017104 0.695891 
0.519942 -0.016376 0.795891 
0.519726 -0.015648 0.895891 
0.519510 -0.014920 0.995891 
0.519294 -0.014192 1.095891 
0.519079 -0.013464 1.195891 
0.518863 -0.012736 1.295891 
0.518647 -0.012008 1.395891 
0.518431 -0.011280 1.495891 
0.518216 -0.010552 1.595891 
0.518000 -0.009824 1.695891 
0.517784 -0.009096 1.795891 
0.517568 -0.008368 1.895891 
0.517353 -0.007640 1.995891 
0.517137 -0.006912 2.095891 
0.516921 -0.006184 2.195891 
0.516705 -0.005456 2.295891 
0.516490 -0.004727 2.395891 
0.516274 -0.003999 2.495891 
0.516058 -0.003271 2.595891 
0.515842 -0.002543 2.695891 
0.515627 -0.001815 2.795891 
0.515411 -0.001087 2.895891 
0.515195 -0.000359 2.995891 
0.514979 0.000369 3.095891 
0.514764 0.001097 3.195891 
0.514548 0.001825 3.295891 
0.514332 0.002553 3.395891 
0.514116 0.003281 3.495891 
0.513901 0.004009 3.595891 
0.513685 0.004737 3.695891 
0.513469 0.005465 3.795891 
0.513253 0.006193 3.895891 
-0.340974 0.071127 -0.006676 
-0.303903 0.161732 -0.007253 
-0.244644 0.239655 -0.007690 
-0.167237 0.299585 -0.007957 
-0.076956 0.337439 -0.008034 
0.117158 0.338279 -0.007615 
0.207763 0.301207 -0.007147 
0.285686 0.241949 -0.006546 
0.345616 0.164541 -0.005852 
0.383470 0.074260 -0.005113 
0.120291 -0.386166 -0.002341 
0.210572 -0.348312 -0.002419 
0.287979 -0.288382 -0.002685 
0.347238 -0.210459 -0.003122 
0.384310 -0.119854 -0.003699 
-0.073823 -0.387005 -0.002760 
-0.164428 -0.349934 -0.003228 
-0.242351 -0.290675 -0.003829 
-0.302281 -0.213268 -0.004523 
-0.340135 -0.122987 -0.005262 
-0.349604 0.100250 3.993324 
-0.312533 0.190855 3.992747 
-0.253274 0.268777 3.992310 
-0.175867 0.328708 3.992043 
-0.085586 0.366561 3.991966 
0.374840 0.103383 3.994887 
0.336986 0.193664 3.994148 
0.277056 0.271071 3.993454 
0.199133 0.330329 3.992853 
0.108528 0.367401 3.992385 
0.111661 -0.357043 3.997659 
0.201942 -0.319190 3.997581 
0.279350 -0.259259 3.997315 
0.338608 -0.181336 3.996878 
0.375680 -0.090732 3.996301 
-0.082453 -0.357883 3.997240 
-0.173058 -0.320811 3.996772 
-0.250981 -0.261553 3.996171 
-0.310911 -0.184145 3.995477 
-0.348765 -0.093865 3.994738 
0.011632 0.379031 3.892082 
0.011847 0.378303 3.792082 
0.012063 0.377575 3.692082 
0.012279 0.376847 3.592082 
0.012495 0.376119 3.492082 
0.012710 0.375391 3.392082 
0.012926 0.374663 3.292082 
0.013142 0.373935 3.192082 
0.013358 0.373207 3.092082 
0.013573 0.372478 2.992082 
0.013789 0.371750 2.892082 
0.014005 0.371022 2.792082 
0.014221 0.370294 2.692082 
0.014436 0.369566 2.592082 
0.014652 0.368838 2.492082 
0.014868 0.368110 2.392082 
0.015084 0.367382 2.292082 
0.015299 0.366654 2.192082 
0.015515 0.365926 2.092082 
0.015731 0.365198 1.992082 
0.015947 0.364470 1.892082 
0.016162 0.363742 1.792082 
0.016378 0.363014 1.692082 
0.016594 0.362286 1.592082 
0.016810 0.361558 1.492082 
0.017025 0.360830 1.392082 
0.017241 0.360101 1.292082 
0.017457 0.359373 1.192082 
0.017673 0.358645 1.092082 
0.017888 0.357917 0.992082 
0.018104 0.357189 0.892082 
0.018320 0.356461 0.792082 
0.018536 0.355733 0.692082 
0.018751 0.355005 0.592082 
0.018967 0.354277 0.492082 
0.019183 0.353549 0.392082 
0.019399 0.352821 0.292082 
0.019614 0.352093 0.192082 
0.019830 0.351365 0.092082 
0.396452 -0.022013 0.095621 
0.396236 -0.021285 0.195621 
0.396020 -0.020557 0.295621 
0.395805 -0.019829 0.395621 
0.395589 -0.019101 0.495621 
0.395373 -0.018373 0.595621 
0.395157 -0.017645 0.695621 
0.394942 -0.016917 0.795621 
0.394726 -0.016189 0.895621 
0.394510 -0.015461 0.995621 
0.394294 -0.014733 1.095621 
0.394079 -0.014005 1.195621 
0.393863 -0.013277 1.295621 
0.393647 -0.012549 1.395621 
0.393431 -0.011821 1.495621 
0.393216 -0.011093 1.595621 
0.393000 -0.010364 1.695621 
0.392784 -0.009636 1.795621 
0.392568 -0.008908 1.895621 
0.392353 -0.008180 1.995621 
0.392137 -0.007452 2.095621 
0.391921 -0.006724 2.195621 
0.391705 -0.005996 2.295621 
0.391490 -0.005268 2.395621 
0.391274 -0.004540 2.495621 
0.391058 -0.003812 2.595621 
0.390842 -0.003084 2.695621 
0.390627 -0.002356 2.795621 
0.390411 -0.001628 2.895621 
0.390195 -0.000900 2.995621 
0.389979 -0.000172 3.095621 
0.389764 0.000556 3.195621 
0.389548 0.001284 3.295621 
0.389332 0.002013 3.395621 
[...]
POINT_DATA 2674
SCALARS u float 1
LOOKUP_TABLE default
0.014156
0.013658
0.014890
0.015197
0.006457
0.006688
0.006985
0.006415
0.014198
0.013842
0.014750
0.014997
0.006410
0.006617
0.006812
0.006411
0.006460
0.006464
0.006472
0.006488
0.006517
0.006560
0.006618
0.006764
0.006842
0.006913
0.006972
0.007012
0.007028
0.007019
0.006928
0.006853
0.006767
0.006677
0.006591
0.006515
0.006456
0.006392
0.006387
0.006394
0.006408
0.006425
0.006440
0.006451
0.015127
0.015035
0.014923
0.014793
0.014646
0.014488
0.014323
0.013996
0.013851
0.013728
0.013635
0.013579
0.013564
0.013590
0.013763
0.013899
0.014057
0.014230
0.014407
0.014581
0.014744
0.015016
0.015117
0.015194
0.015244
0.015269
0.015269
0.015245
0.013862
0.013569
0.013278
0.012989
0.012702
0.012417
0.012135
0.011855
0.011578
0.011303
0.011032
0.010765
0.010501
0.010240
0.009985
0.009733
0.009487
0.009246
0.009010
0.008781
0.008559
0.008343
0.008136
0.007937
0.007747
0.007567
0.007397
0.007238
0.007092
0.006958
0.006838
0.006731
0.006640
0.006564
0.006504
0.006461
0.006434
0.006425
0.006432
0.014897
0.014599
0.014301
0.014006
0.013712
0.013419
0.013129
0.012840
0.012554
0.012270
0.011988
0.011709
0.011433
0.011160
0.010890
0.010623
0.010360
0.010102
0.009847
0.009598
0.009353
0.009114
0.008881
0.008654
0.008434
0.008222
0.008017
0.007822
0.007636
0.007460
0.007294
0.007141
0.006999
0.006871
0.006756
0.006657
0.006572
0.006503
0.006450
0.014598
0.014308
0.014020
0.013733
0.013449
0.013167
0.012887
0.012610
0.012335
0.012063
0.011795
0.011529
0.011267
0.011009
0.010755
0.010505
0.010260
0.010020
0.009785
0.009556
0.009333
0.009116
0.008907
0.008705
0.008511
0.008326
0.008150
0.007985
0.007829
0.007685
0.007553
0.007433
0.007326
0.007233
0.007154
0.007089
0.007040
0.007006
0.006987
0.013369
0.013081
0.012795
0.012512
0.012231
0.011953
0.011677
0.011405
0.011135
0.010869
0.010607
0.010349
0.010095
0.009845
0.009601
0.009361
0.009128
0.008901
0.008681
0.008467
0.008262
0.008065
0.007877
0.007699
0.007531
0.007374
0.007229
0.007097
0.006977
0.006872
0.006781
0.006706
0.006646
0.006602
0.006575
0.006564
0.006570
0.006593
0.006632
0.014919
0.014812
0.014679
0.014526
0.014362
0.014044
0.013915
0.013823
0.013777
0.013784
0.014598
0.014429
0.014255
0.014090
0.013948
0.014876
0.014971
0.015031
0.015055
0.015043
0.006384
0.006375
0.006379
0.006388
0.006399
0.006552
0.006499
0.006461
0.006436
0.006421
0.006840
0.006838
0.006808
0.006755
0.006688
0.006758
0.006685
0.006604
0.006525
0.006459
0.006388
0.006384
0.006397
0.006428
0.006475
0.006538
0.006618
0.006713
0.006822
0.006946
0.007084
0.007233
0.007395
0.007568
0.007751
0.007943
0.008145
0.008355
0.008572
0.008797
0.009028
0.009266
0.009509
0.009757
0.010010
0.010267
0.010529
0.010794
0.011063
0.011336
0.011611
0.011889
0.012170
0.012453
0.012739
0.013027
0.013317
0.013609
0.013902
0.013551
0.013262
0.012974
0.012689
0.012406
0.012126
0.011848
0.011573
0.011301
0.011032
0.010767
0.010505
0.010248
0.009995
0.009746
0.009503
0.009265
0.009033
0.008807
0.008589
0.008377
0.008174
0.007979
0.007793
0.007618
0.007453
0.007299
0.007157
0.007029
0.006913
0.006812
0.006726
0.006655
0.006600
0.006561
0.006539
0.006533
0.006545
0.006573
0.006812
0.006827
0.006859
0.006907
0.006970
0.007048
0.007140
0.007247
0.007367
0.007499
0.007644
0.007800
0.007967
0.008144
0.008330
0.008525
0.008729
0.008940
0.009158
0.009383
0.009614
0.009851
0.010093
0.010340
0.010592
0.010847
0.011107
0.011371
0.011638
0.011909
0.012182
0.012458
0.012737
0.013018
0.013302
0.013588
0.013875
0.014165
0.014457
0.014698
0.014401
0.014105
0.013810
0.013517
0.013226
0.012937
0.012651
0.012366
0.012084
0.011804
0.011527
0.011253
0.010982
0.010714
0.010451
0.010191
0.009935
0.009684
0.009438
0.009197
0.008962
0.008734
0.008512
0.008297
0.008091
0.007892
0.007703
0.007524
0.007356
0.007198
0.007053
0.006921
0.006802
0.006698
0.006608
0.006535
0.006477
0.006436
0.007392
0.008545
0.007733
0.007915
0.008092
0.009734
0.010751
0.011000
0.010243
0.006770
0.006951
0.007047
0.007148
0.006804
0.006865
0.012100
0.011835
0.013167
0.012374
0.012636
0.013685
0.011288
0.006692
0.013742
0.014227
0.006828
0.006821
0.006695
0.013466
0.013793
0.009838
0.010317
0.007024
0.006761
0.008970
0.010046
0.010688
0.007502
0.007175
0.006959
0.006714
0.011175
0.010522
0.008514
0.007302
0.007000
0.008705
0.010491
0.009021
0.007645
0.011994
0.007305
0.007181
0.008275
0.010966
0.006883
0.009486
0.012478
0.007434
0.007031
0.008445
0.008116
0.009234
0.008718
0.012908
0.007088
0.006809
0.013402
0.006779
0.013438
0.013761
0.014015
0.006807
0.006733
0.006780
0.006835
0.006628
0.013466
0.014143
0.009317
0.013145
0.013780
0.006847
0.006648
0.013436
0.013156
0.007253
0.006815
0.006750
0.012335
0.012650
0.006770
0.006882
0.012952
0.013168
0.006966
0.007120
0.007543
0.007442
0.006906
0.006677
0.010504
0.010263
0.006851
0.006707
0.008975
0.008745
0.009431
0.009891
0.010092
0.010736
0.007747
0.007232
0.007221
0.006800
0.008500
0.007911
0.008726
0.008499
0.009124
0.008484
0.008934
0.008312
0.009680
0.010029
0.011497
0.011858
0.006946
0.006619
0.012146
0.012806
0.012129
0.012317
0.011107
0.011708
0.010519
0.010759
0.011625
0.012253
0.011305
0.011988
0.009878
0.010560
0.011842
0.012564
0.010269
0.010948
0.010511
0.011206
0.010771
0.011414
0.009677
0.010321
0.007773
0.007510
0.011279
0.011529
0.009316
0.009604
0.007619
0.007114
0.012665
0.012994
0.007012
0.006656
0.008717
0.008112
0.007225
0.007064
0.006954
0.006797
0.011872
0.012155
0.008505
0.008364
0.007321
0.006871
0.007448
0.007281
0.007950
0.007668
0.009985
0.010230
0.008346
0.007751
0.007121
0.006727
0.008160
0.007656
0.007835
0.007361
0.007029
0.006882
0.006883
0.006609
0.008258
0.012872
0.013611
0.013704
0.014439
0.013961
0.007131
0.007362
0.011545
0.010966
0.011298
0.006830
0.008930
0.010276
0.010738
0.010505
0.010732
0.010992
0.012517
0.013209
0.012925
0.006852
0.006586
0.006816
0.006719
0.009963
0.009540
0.008224
0.007903
0.007599
0.008731
0.009528
0.009747
0.007782
0.008065
0.012916
0.012410
0.008256
0.008091
0.009010
0.009195
0.009450
0.010097
0.007977
0.007482
0.009826
0.009213
0.009399
0.009171
0.008962
0.009647
0.006619
0.006826
0.008813
0.009477
0.006907
0.008192
0.007196
0.007728
0.007964
0.007361
0.009412
0.009144
0.009727
0.010508
0.006385
0.006405
0.006569
0.006788
0.006500
0.006442
0.011632
0.012215
0.012561
0.013219
0.008582
0.010914
0.006391
0.006435
0.006402
0.013487
0.013700
0.006482
0.013146
0.013293
0.007276
0.011012
0.006517
0.007262
0.006537
0.011180
0.009226
0.010753
0.006811
0.010909
0.006774
0.009785
0.009385
0.006970
0.009446
0.006621
0.006896
0.006614
0.009579
0.006406
0.006446
0.009009
0.009145
0.012208
0.012403
0.012548
0.012752
0.007633
0.007825
0.008436
0.009836
0.011822
0.011550
0.007557
0.007717
0.008320
0.010023
0.008515
0.008644
0.011993
0.011743
0.006398
0.012952
0.006375
0.006418
0.013371
0.013545
0.006387
0.013345
0.013615
0.006381
0.006485
0.012870
0.013090
0.006381
0.006473
0.007624
0.007677
0.012002
0.012098
0.008961
0.009009
0.008281
0.008345
0.012684
0.012798
0.006705
0.006716
0.007149
0.007124
0.011395
0.011482
0.006773
0.007150
0.007046
0.007306
0.007219
0.011262
0.011474
0.009934
0.010159
0.006428
0.012139
0.012408
0.009077
0.008892
0.011478
0.011744
0.010661
0.009401
0.009478
0.010661
0.006964
0.010918
0.006616
0.006609
0.006453
0.006495
0.006687
0.006700
0.006607
0.006612
0.006423
0.006439
0.008448
0.008514
0.009136
0.009338
0.007464
0.007338
0.009364
0.009573
0.011127
0.007410
0.009621
0.009893
0.009163
0.009240
0.010935
0.011026
0.008598
0.008429
0.011697
0.011791
0.012358
0.012462
0.006865
0.006832
0.008359
0.008206
0.009605
0.009713
0.008649
0.008823
0.011805
0.012068
0.010115
0.010369
0.008706
0.008804
0.008075
0.007940
0.007562
0.007852
0.007720
0.011149
0.006389
0.006408
0.006429
0.006383
0.012720
0.013006
0.006377
0.006398
0.006397
0.013588
0.013879
0.006540
0.013583
0.008379
0.010776
0.010678
0.011242
0.011124
0.007284
0.007270
0.011889
0.006635
0.007520
0.007452
0.006471
0.006478
0.007893
0.007827
0.006692
0.006692
0.010400
0.010410
0.006541
0.006541
0.012442
0.012718
0.013105
0.013378
0.008799
0.012903
0.013026
0.008083
0.008166
0.011342
0.011006
0.007041
0.010461
0.010585
0.009954
0.007110
0.010202
0.010173
0.007001
0.006409
0.006486
0.009894
0.007461
0.006481
0.006461
0.006860
0.006787
0.007384
0.010564
0.007599
0.008660
0.008419
0.007969
0.010794
0.009976
0.011085
0.009730
0.010247
0.011357
0.010549
0.006536
0.006980
0.006821
0.006597
0.013373
0.012702
0.013016
0.011877
0.009185
0.014042
0.006393
0.006408
0.014341
0.014210
0.006387
0.006391
0.014643
0.011892
0.011514
0.007773
0.008120
0.013322
0.009516
0.011627
0.012215
0.011236
0.009240
0.011829
0.006447
0.013750
0.008782
0.009692
0.010343
0.012514
0.013063
0.009973
0.009092
0.009326
0.012644
0.012150
0.006520
0.007256
0.010129
0.011112
0.012823
0.013505
0.006500
0.006719
0.007474
0.006624
0.010740
0.009778
0.012457
0.006598
0.006740
0.007078
0.007282
0.009389
0.008975
0.006793
0.014173
0.006400
0.006434
0.013875
0.013652
0.006474
0.006387
0.014531
0.013873
0.006428
0.009418
0.006475
0.013590
0.013729
0.006465
0.008441
0.008620
0.008971
0.009104
0.006680
0.012927
0.012728
0.009293
0.009099
0.008914
0.009815
0.009299
0.009491
0.009688
0.007223
0.007336
0.007477
0.007628
0.007557
0.007897
0.012442
0.011862
0.014504
0.006383
0.007352
0.007696
0.007077
0.013663
0.007197
0.007558
0.007167
0.006473
0.006424
0.013937
0.006427
0.013965
0.009592
0.009109
0.007077
0.007399
0.008520
0.008990
0.007237
0.006945
0.011088
0.011330
0.007992
0.008162
0.010066
0.009542
0.010853
0.010369
0.008214
0.008599
0.013518
0.012893
0.012150
0.011568
0.012609
0.012422
0.008707
0.008858
0.011027
0.010877
0.011146
0.010567
0.013256
0.006588
0.006629
0.008346
0.008821
0.011837
0.011254
0.011460
0.010907
0.009793
0.010331
0.012939
0.012329
0.010048
0.010549
0.009940
0.009759
0.010824
0.010619
0.008203
0.008390
0.013205
0.013024
0.006700
0.006740
0.006516
0.006815
0.011774
0.011615
0.006674
0.006850
0.006948
0.006962
0.007780
0.007953
0.006825
0.013621
0.006475
0.013360
0.006530
0.013838
0.013482
0.006444
0.006519
0.011594
0.014107
0.006392
0.006404
0.014764
0.008500
0.008831
0.014169
0.006403
0.009901
0.009543
0.008734
0.009231
0.007653
0.007772
0.011593
0.011401
0.011784
0.012007
0.010507
0.010252
0.006927
0.010193
0.009999
0.007115
0.008187
0.007486
0.012083
0.012710
0.007968
0.008344
0.014359
0.006383
0.012419
0.012109
0.012254
0.006711
0.007395
0.007082
0.007795
0.006840
0.007742
0.013197
0.013119
0.009177
0.008656
0.008243
0.008924
0.010491
0.011459
0.010199
0.011692
0.010736
0.011181
0.006820
0.007600
0.007417
0.007292
0.006886
0.007020
0.013127
0.012624
0.013461
0.013792
0.009605
0.012128
0.006577
0.014563
0.014469
0.006723
0.006508
0.014833
0.014703
0.006726
0.007060
0.006915
0.008014
0.012180
0.007960
0.012093
0.006593
0.010257
0.010744
0.011896
0.013942
0.006964
0.006794
0.011810
0.010689
0.010215
0.013865
0.007677
0.010495
0.006868
0.007582
0.006709
0.010447
0.010031
0.009995
0.011027
0.010965
0.008443
0.008631
0.009304
0.011382
0.013010
0.012722
0.008397
0.008612
0.009314
0.011312
0.009527
0.009508
0.012916
0.012619
0.014467
0.006645
0.006663
0.014112
0.006743
0.006782
0.006503
0.014633
0.014457
0.006561
0.006918
0.008536
0.008551
0.010017
0.010007
0.011023
0.011047
0.009291
0.009288
0.006841
0.012558
0.012504
0.007894
0.007858
0.013748
0.013596
0.006743
0.007843
0.007767
0.007974
0.007901
0.006655
0.012375
0.012260
0.012865
0.012822
0.011012
0.010916
0.006654
0.006801
0.006864
0.014249
0.014168
0.014039
0.013886
0.006744
0.012602
0.012454
0.007454
0.007504
0.009914
0.009971
0.011571
0.011619
0.012878
0.012730
0.010501
0.010477
0.011484
0.011588
0.007120
0.007031
0.007296
0.007154
0.007737
0.007688
0.013147
0.013002
0.007018
0.006815
0.007144
0.006967
0.007538
0.007433
0.007248
0.007173
0.009478
0.009471
0.010480
0.010402
0.010226
0.010158
0.008093
0.008063
0.012073
0.011948
0.010742
0.010655
0.010245
0.010225
0.012089
0.012038
0.010752
0.010726
0.011257
0.011149
0.009353
0.009380
0.011301
0.011269
0.006990
0.006908
0.009115
0.009127
0.009694
0.009656
0.009740
0.009725
0.008836
0.008830
0.013291
0.013217
0.008466
0.008553
0.008530
0.006679
0.006761
0.006833
0.010914
0.006656
0.014341
0.014179
0.006456
0.014844
0.014651
0.006781
0.006807
0.006910
0.012406
0.009384
0.011890
0.011863
0.007399
0.007321
0.007156
0.007550
0.007609
0.008783
0.008774
0.008140
0.008154
0.008355
0.008337
0.013303
0.013449
0.012293
0.012242
0.013552
0.013628
0.009823
0.007916
0.009062
0.009063
0.007423
0.007289
0.013078
0.013025
0.014793
0.014749
0.006580
0.007785
0.008048
0.008008
0.007593
0.007473
0.008239
0.008252
0.007744
0.007644
0.008293
0.008218
0.007203
0.007079
0.011388
0.012904
0.011645
0.011098
0.011930
0.010733
0.009268
0.008943
0.008719
0.009778
0.009525
0.010117
0.010428
0.008295
0.007871
0.008089
0.007674
0.007307
0.007473
0.006685
0.006377
0.006588
0.006403
0.006434
0.012821
0.006389
0.013130
0.006546
0.013263
0.012605
0.012864
0.006411
0.006387
0.012404
0.012673
0.008776
0.008571
0.010930
0.010675
0.008739
0.008954
0.009274
0.009486
0.006733
0.006791
0.006468
0.006476
0.006638
0.006589
0.006524
0.006551
0.008572
0.008368
0.006707
0.006646
0.008316
0.008121
0.011236
0.011552
0.011704
0.011454
0.011226
0.010967
0.010699
0.010441
0.009014
0.009233
0.010099
0.009831
0.009794
0.009562
0.007222
0.007102
0.008074
0.007898
0.007298
0.007433
0.007578
0.007712
0.007101
0.006985
0.006939
0.006844
0.006394
0.006463
0.006400
0.006381
0.006399
0.012877
0.013099
0.013040
0.012545
0.012271
0.006398
0.006390
0.012370
0.012757
0.008822
0.008936
0.011721
0.011607
0.008266
0.008158
0.008678
0.008407
0.007078
0.007225
0.008522
0.008259
0.006512
0.006549
0.006540
0.006539
0.008923
0.008647
0.008683
0.008557
0.006886
0.006922
0.011213
0.011064
0.007265
0.007197
0.007953
0.008040
0.006760
0.006760
0.010830
0.010964
0.007371
0.007438
0.007827
0.007727
0.006593
0.006662
0.008302
0.008054
0.009249
0.009364
0.009754
0.009914
0.009081
0.009218
0.009194
0.008922
0.011424
0.011059
0.007467
0.007292
0.006622
0.006666
0.006928
0.006830
0.006707
0.006775
0.010869
0.011231
0.007426
0.007617
0.008097
0.007860
0.010565
0.010265
0.009484
0.009179
0.010952
0.010595
0.010494
0.010627
0.007704
0.007930
0.007610
0.007538
0.011651
0.011253
0.011284
0.011405
0.010351
0.010046
0.010116
0.010009
0.009490
0.009609
0.009730
0.009420
0.007303
0.007147
0.007034
0.007094
0.012065
0.011894
0.006499
0.006470
0.012896
0.012570
0.012508
0.012362
0.006417
0.006451
0.012155
0.012417
0.006594
0.006616
0.006497
0.012668
0.012786
0.006378
0.006388
0.008500
0.006507
0.006424
0.013211
0.013427
0.013142
0.006419
0.006579
0.013458
0.013028
0.008164
0.008023
0.008362
0.008453
0.012114
0.012233
0.012405
0.012022
0.006823
0.006434
0.013670
0.013290
0.006455
0.006515
0.006486
0.013401
0.007131
0.006969
0.011725
0.012055
0.011504
0.011882
0.007087
0.006960
0.006484
0.006401
0.012727
0.013139
0.010022
0.009691
0.010572
0.010201
0.010309
0.009957
0.006430
0.006396
0.007700
0.007882
0.006413
0.006409
0.006418
0.013469
0.006523
0.007746
0.007559
0.006429
0.006421
0.006685
0.007452
0.007590
0.011726
0.011961
0.006379
0.006422
0.006437
0.006666
0.012178
0.011901
0.012176
0.011769
0.007793
0.007577
0.006400
0.013354
0.006477
0.010792
0.010408
0.006424
0.006438
0.006464
0.006698
0.010239
0.010426
0.006848
0.006750
0.010336
0.010250
0.010014
0.010239
0.006459
0.013427
0.006540
0.006439
0.013782
0.013455
0.011193
0.011415
0.006443
0.012070
0.012392
0.010787
0.009359
0.011626
0.009590
0.009804
0.011020
0.011307
0.010275
0.008753
0.007746
0.008922
0.007533
0.008305
0.008138
0.008504
0.007867
0.007231
0.007322
0.007155
0.006994
0.007060
0.007017
0.006762
0.014353
0.013345
0.006761
0.010746
0.011526
0.011758
0.011026
0.007769
0.008291
0.012671
0.012126
0.007173
0.006796
0.012540
0.011772
0.012051
0.011301
0.010126
0.009442
0.009621
0.009000
0.007919
0.008468
0.007100
0.007559
0.006947
0.007352
0.007103
0.006775
0.013286
0.012564
0.008056
0.008720
0.007237
0.006859
0.008179
0.007593
0.008743
0.009386
0.009810
0.010407
0.012241
0.011597
0.009850
0.009217
0.010925
0.010353
0.009074
0.008471
0.007466
0.008003
0.008794
0.008283
0.007848
0.007372
0.007681
0.007256
0.007001
0.007490
0.006938
0.007038
0.006920
0.012654
0.006705
0.007031
0.006864
0.006883
0.009887
0.009515
0.007043
0.010534
0.010796
0.012659
0.013055
0.012892
0.011939
0.007687
0.007451
0.007668
0.007957
0.009061
0.008788
0.007496
0.008272
0.008205
0.008547
0.008596
0.009475
0.008157
0.007391
0.008406
0.009292
0.007258
0.007968
0.010273
0.011197
0.007971
0.008815
0.007851
0.008680
0.012201
0.011221
0.012372
0.011422
0.012016
0.011042
0.007114
0.006929
0.010729
0.011062
0.010890
0.011422
0.010793
0.011757
0.007218
0.007005
0.007648
0.008444
0.010526
0.011514
0.007566
0.007386
0.007935
0.008221
0.007239
0.006715
0.008806
0.008521
0.010184
0.009750
0.010290
0.010563
0.007266
0.007486
0.009356
0.009050
0.009944
0.010912
0.010094
0.009174
0.009589
0.009280
0.008791
0.009632
0.007131
0.007394
0.007466
0.006844
0.006928
0.007578
0.008157
0.008992
0.007106
0.007861
0.010030
0.010288
0.013385
0.012393
0.006666
0.007157
0.007078
0.014351
0.007348
0.006780
0.007090
0.012343
0.012597
0.006842
0.006680
0.006662
0.006894
0.006978
0.006774
0.008007
0.012327
0.013064
0.013742
0.013580
0.014095
0.013415
0.012900
0.007063
0.006966
0.006793
0.013935
0.009088
0.007009
0.013542
0.014606
0.012423
0.012816
0.008091
0.007804
0.007637
0.006682
0.008099
0.008338
0.013195
0.012161
0.012726
0.013673
0.007426
0.012985
0.006751
0.007113
0.008664
0.008377
0.006633
0.007004
0.013047
0.013295
0.010046
0.010042
0.007195
0.007811
0.007273
0.010567
0.011272
0.007092
0.007817
0.007555
0.011834
0.012164
0.006726
0.012660
0.011641
0.007053
0.007721
0.012368
0.012101
0.011874
0.006973
0.007146
0.009185
0.008218
0.011637
0.011233
0.010545
0.013370
0.006909
0.007020
0.009617
0.010343
0.007029
0.012383
0.011867
0.009837
0.008949
0.007008
0.010661
0.010035
0.007021
0.011934
0.011572
0.013070
0.014042
0.007001
0.013152
0.013793
0.014168
0.011033
0.011290
0.009734
0.010585
0.010386
0.009427
0.006831
0.010146
0.010926
0.013506
0.013720
0.006971
0.013621
0.014007
0.013252
0.013615
0.006987
0.013394
0.006702
0.013854
0.006908
0.006839
0.012871
0.014497
0.013123
0.012570
0.010790
0.011978
0.011110
0.011394
0.011698
0.008287
0.009353
0.009538
0.008082
0.008961
0.009174
0.007714
0.007272
0.007028
0.007134
0.006646
0.006871
0.014809
0.014574
0.014286
0.014163
0.014045
0.013929
0.007066
0.007255
0.011255
0.011319
0.008738
0.008682
0.007530
0.007347
0.011715
0.011786
0.006780
0.007036
0.008986
0.008948
0.006957
0.007194
0.013497
0.013376
0.011987
0.012060
0.010143
0.010117
0.010471
0.010786
0.010434
0.010738
0.011043
0.011102
0.009382
0.009394
0.007952
0.008069
0.009169
0.009193
0.007738
0.007895
0.007582
0.007726
0.006794
0.006620
0.006789
0.014811
0.014334
0.014129
0.014425
0.014506
0.014553
0.014315
0.006584
0.006992
0.014825
0.014944
0.014116
0.013744
0.013430
0.007031
0.006899
0.007009
0.007149
0.007156
0.007259
0.007954
0.008011
0.013072
0.012897
0.007573
0.007604
0.009647
0.009645
0.010310
0.010318
0.010635
0.010619
0.007328
0.007556
0.008846
0.008875
0.007657
0.007449
0.009640
0.009630
0.010137
0.010089
0.010315
0.010256
0.010588
0.010515
0.008953
0.008914
0.008812
0.008759
0.007017
0.007290
0.012611
0.012489
0.010932
0.010956
0.007405
0.007304
0.007779
0.007842
0.008611
0.008538
0.008602
0.008615
0.009270
0.009282
0.010019
0.010016
0.008026
0.008157
0.008148
0.008195
0.012073
0.012104
0.010784
0.010871
0.008435
0.008341
0.011210
0.011240
0.008410
0.008376
0.011839
0.011877
0.012370
0.012323
0.007164
0.007417
0.009902
0.009874
0.011065
0.011168
0.007790
0.007600
0.009098
0.009123
0.011436
0.011520
0.011554
0.011514
0.006692
0.006895
0.013513
0.013571
0.014305
0.014251
0.006673
0.007054
0.013906
0.013964
0.014871
0.015047
0.006883
0.007120
0.006871
0.007184
0.006957
0.006685
0.013801
0.013689
0.006516
0.006958
0.006874
0.006752
0.006704
0.006808
0.013850
0.014027
0.009832
0.014659
0.014498
0.014977
0.014972
0.007457
0.014681
0.014739
0.014794
0.015043