# vtk DataFile Version 2.0
Unstructured Grid Example
ASCII
DATASET UNSTRUCTURED_GRID
POINTS 2674 float
-0.026313 0.532867 0.011909 
0.470770 0.029950 0.005543 
-0.032147 -0.467133 0.002087 
-0.529230 0.035784 0.008453 
-0.014671 0.493580 4.011909 
0.482412 -0.009337 4.005543 
-0.020505 -0.506420 4.002087 
-0.517588 -0.003503 4.008453 
-0.027042 0.407867 0.010681 
0.345770 0.030679 0.005907 
-0.031418 -0.342133 0.003315 
-0.404230 0.035055 0.008090 
-0.015400 0.368580 4.010681 
0.357412 -0.008608 4.005907 
-0.019776 -0.381420 4.003315 
-0.392588 -0.004232 4.008090 
0.082818 0.483403 4.011531 
0.176449 0.454403 4.010978 
0.262623 0.407694 4.010273 
0.338028 0.345071 4.009442 
0.399767 0.268939 4.008516 
0.445468 0.182227 4.007533 
0.473374 0.088264 4.006529 
0.472235 -0.106826 4.004613 
0.443235 -0.200457 4.003774 
0.396526 -0.286631 4.003060 
0.333902 -0.362036 4.002497 
0.257771 -0.423776 4.002106 
0.171058 -0.469476 4.001904 
0.077096 -0.497382 4.001898 
-0.117994 -0.496244 4.002466 
-0.211625 -0.467243 4.003018 
-0.297799 -0.420534 4.003723 
-0.373204 -0.357911 4.004555 
-0.434944 -0.281780 4.005480 
-0.480644 -0.195067 4.006463 
-0.508550 -0.101104 4.007467 
-0.507412 0.093986 4.009383 
-0.478412 0.187617 4.010222 
-0.431702 0.273791 4.010936 
-0.369079 0.349196 4.011500 
-0.292948 0.410935 4.011890 
-0.206235 0.456636 4.012092 
-0.112272 0.484542 4.012099 
-0.519054 0.133273 0.009383 
-0.490054 0.226904 0.010222 
-0.443344 0.313077 0.010936 
-0.380721 0.388483 0.011500 
-0.304590 0.450222 0.011890 
-0.217877 0.495923 0.012092 
-0.123914 0.523828 0.012099 
0.071176 0.522690 0.011531 
0.164807 0.493690 0.010978 
0.250981 0.446981 0.010273 
0.326386 0.384357 0.009442 
0.388125 0.308226 0.008516 
0.433826 0.221513 0.007533 
0.461732 0.127551 0.006529 
0.460593 -0.067540 0.004613 
0.431593 -0.161170 0.003774 
0.384884 -0.247344 0.003060 
0.322261 -0.322749 0.002497 
0.246129 -0.384489 0.002106 
0.159416 -0.430189 0.001904 
0.065454 -0.458095 0.001898 
-0.129636 -0.456957 0.002466 
-0.223267 -0.427957 0.003018 
-0.309441 -0.381247 0.003723 
-0.384846 -0.318624 0.004555 
-0.446586 -0.242493 0.005480 
-0.492286 -0.155780 0.006463 
-0.520192 -0.061817 0.007467 
-0.026022 0.531885 0.111909 
-0.025731 0.530902 0.211909 
-0.025440 0.529920 0.311909 
-0.025149 0.528938 0.411909 
-0.024858 0.527956 0.511909 
-0.024567 0.526974 0.611909 
-0.024276 0.525992 0.711909 
-0.023985 0.525009 0.811909 
-0.023693 0.524027 0.911909 
-0.023402 0.523045 1.011909 
-0.023111 0.522063 1.111909 
-0.022820 0.521081 1.211909 
-0.022529 0.520099 1.311909 
-0.022238 0.519116 1.411909 
-0.021947 0.518134 1.511909 
-0.021656 0.517152 1.611909 
-0.021365 0.516170 1.711909 
-0.021074 0.515188 1.811909 
-0.020783 0.514205 1.911909 
-0.020492 0.513223 2.011909 
-0.020201 0.512241 2.111909 
-0.019910 0.511259 2.211909 
-0.019619 0.510277 2.311909 
-0.019328 0.509295 2.411909 
-0.019037 0.508312 2.511909 
-0.018746 0.507330 2.611909 
-0.018455 0.506348 2.711909 
-0.018164 0.505366 2.811909 
-0.017873 0.504384 2.911909 
-0.017581 0.503402 3.011909 
-0.017290 0.502419 3.111909 
-0.016999 0.501437 3.211909 
-0.016708 0.500455 3.311909 
-0.016417 0.499473 3.411909 
-0.016126 0.498491 3.511909 
-0.015835 0.497509 3.611909 
-0.015544 0.496526 3.711909 
-0.015253 0.495544 3.811909 
-0.014962 0.494562 3.911909 
-0.528939 0.034802 0.108453 
-0.528648 0.033820 0.208453 
-0.528357 0.032837 0.308453 
-0.528066 0.031855 0.408453 
-0.527775 0.030873 0.508453 
-0.527484 0.029891 0.608453 
-0.527193 0.028909 0.708453 
-0.526902 0.027927 0.808453 
-0.526611 0.026944 0.908453 
-0.526320 0.025962 1.008453 
-0.526029 0.024980 1.108453 
-0.525738 0.023998 1.208453 
-0.525446 0.023016 1.308453 
-0.525155 0.022034 1.408453 
-0.524864 0.021051 1.508453 
-0.524573 0.020069 1.608453 
-0.524282 0.019087 1.708453 
-0.523991 0.018105 1.808453 
-0.523700 0.017123 1.908453 
-0.523409 0.016140 2.008453 
-0.523118 0.015158 2.108453 
-0.522827 0.014176 2.208453 
-0.522536 0.013194 2.308453 
-0.522245 0.012212 2.408453 
-0.521954 0.011230 2.508453 
-0.521663 0.010247 2.608453 
-0.521372 0.009265 2.708453 
-0.521081 0.008283 2.808453 
-0.520790 0.007301 2.908453 
-0.520499 0.006319 3.008453 
-0.520208 0.005337 3.108453 
-0.519917 0.004354 3.208453 
-0.519625 0.003372 3.308453 
-0.519334 0.002390 3.408453 
-0.519043 0.001408 3.508453 
-0.518752 0.000426 3.608453 
-0.518461 -0.000556 3.708453 
-0.518170 -0.001539 3.808453 
-0.517879 -0.002521 3.908453 
-0.031856 -0.468115 0.102087 
-0.031565 -0.469098 0.202087 
-0.031274 -0.470080 0.302087 
-0.030983 -0.471062 0.402087 
-0.030692 -0.472044 0.502087 
-0.030401 -0.473026 0.602087 
-0.030110 -0.474008 0.702087 
-0.029819 -0.474991 0.802087 
-0.029528 -0.475973 0.902087 
-0.029237 -0.476955 1.002087 
-0.028946 -0.477937 1.102087 
-0.028655 -0.478919 1.202087 
-0.028364 -0.479901 1.302087 
-0.028073 -0.480884 1.402087 
-0.027782 -0.481866 1.502087 
-0.027491 -0.482848 1.602087 
-0.027199 -0.483830 1.702087 
-0.026908 -0.484812 1.802087 
-0.026617 -0.485795 1.902087 
-0.026326 -0.486777 2.002087 
-0.026035 -0.487759 2.102087 
-0.025744 -0.488741 2.202087 
-0.025453 -0.489723 2.302087 
-0.025162 -0.490705 2.402087 
-0.024871 -0.491688 2.502087 
-0.024580 -0.492670 2.602087 
-0.024289 -0.493652 2.702087 
-0.023998 -0.494634 2.802087 
-0.023707 -0.495616 2.902087 
-0.023416 -0.496598 3.002087 
-0.023125 -0.497581 3.102087 
-0.022834 -0.498563 3.202087 
-0.022543 -0.499545 3.302087 
-0.022252 -0.500527 3.402087 
-0.021961 -0.501509 3.502087 
-0.021670 -0.502491 3.602087 
-0.021378 -0.503474 3.702087 
-0.021087 -0.504456 3.802087 
-0.020796 -0.505438 3.902087 
0.471061 0.028967 0.105543 
0.471352 0.027985 0.205543 
0.471643 0.027003 0.305543 
0.471934 0.026021 0.405543 
0.472225 0.025039 0.505543 
0.472516 0.024057 0.605543 
0.472807 0.023074 0.705543 
0.473098 0.022092 0.805543 
0.473389 0.021110 0.905543 
0.473680 0.020128 1.005543 
0.473971 0.019146 1.105543 
0.474262 0.018163 1.205543 
0.474554 0.017181 1.305543 
0.474845 0.016199 1.405543 
0.475136 0.015217 1.505543 
0.475427 0.014235 1.605543 
0.475718 0.013253 1.705543 
0.476009 0.012270 1.805543 
0.476300 0.011288 1.905543 
0.476591 0.010306 2.005543 
0.476882 0.009324 2.105543 
0.477173 0.008342 2.205543 
0.477464 0.007360 2.305543 
0.477755 0.006377 2.405543 
0.478046 0.005395 2.505543 
0.478337 0.004413 2.605543 
0.478628 0.003431 2.705543 
0.478919 0.002449 2.805543 
0.479210 0.001467 2.905543 
0.479501 0.000484 3.005543 
0.479792 -0.000498 3.105543 
0.480083 -0.001480 3.205543 
0.480375 -0.002462 3.305543 
0.480666 -0.003444 3.405543 
0.480957 -0.004426 3.505543 
0.481248 -0.005409 3.605543 
0.481539 -0.006391 3.705543 
0.481830 -0.007373 3.805543 
0.482121 -0.008355 3.905543 
-0.390886 0.132037 0.009006 
-0.352896 0.222261 0.009785 
-0.292848 0.299579 0.010374 
-0.214835 0.358720 0.010734 
-0.124174 0.395655 0.010838 
0.069940 0.394523 0.010273 
0.160165 0.356532 0.009642 
0.237482 0.296485 0.008831 
0.296623 0.218472 0.007895 
0.333558 0.127811 0.006897 
0.065714 -0.329922 0.003158 
0.156375 -0.292987 0.003263 
0.234388 -0.233845 0.003622 
0.294435 -0.156528 0.004211 
0.332426 -0.066304 0.004991 
-0.128401 -0.328789 0.003723 
-0.218625 -0.290799 0.004354 
-0.295942 -0.230751 0.005166 
-0.355084 -0.152739 0.006102 
-0.392019 -0.062077 0.007099 
-0.379244 0.092750 4.009006 
-0.341254 0.182975 4.009785 
-0.281206 0.260292 4.010374 
-0.203193 0.319433 4.010734 
-0.112532 0.356368 4.010838 
0.345200 0.088524 4.006897 
0.308265 0.179185 4.007895 
0.249124 0.257198 4.008831 
0.171807 0.317246 4.009642 
0.081582 0.355236 4.010273 
0.077356 -0.369209 4.003158 
0.168017 -0.332274 4.003263 
0.246030 -0.273132 4.003622 
0.306077 -0.195815 4.004211 
0.344068 -0.105591 4.004991 
-0.116759 -0.368076 4.003723 
-0.206983 -0.330086 4.004354 
-0.284300 -0.270038 4.005166 
-0.343442 -0.192025 4.006102 
-0.380377 -0.101364 4.007099 
-0.015691 0.369562 3.910681 
-0.015982 0.370544 3.810681 
-0.016273 0.371526 3.710681 
-0.016564 0.372509 3.610681 
-0.016856 0.373491 3.510681 
-0.017147 0.374473 3.410681 
-0.017438 0.375455 3.310681 
-0.017729 0.376437 3.210681 
-0.018020 0.377419 3.110681 
-0.018311 0.378402 3.010681 
-0.018602 0.379384 2.910681 
-0.018893 0.380366 2.810681 
-0.019184 0.381348 2.710681 
-0.019475 0.382330 2.610681 
-0.019766 0.383312 2.510681 
-0.020057 0.384295 2.410681 
-0.020348 0.385277 2.310681 
-0.020639 0.386259 2.210681 
-0.020930 0.387241 2.110681 
-0.021221 0.388223 2.010681 
-0.021512 0.389205 1.910681 
-0.021803 0.390188 1.810681 
-0.022094 0.391170 1.710681 
-0.022385 0.392152 1.610681 
-0.022676 0.393134 1.510681 
-0.022968 0.394116 1.410681 
-0.023259 0.395099 1.310681 
-0.023550 0.396081 1.210681 
-0.023841 0.397063 1.110681 
-0.024132 0.398045 1.010681 
-0.024423 0.399027 0.910681 
-0.024714 0.400009 0.810681 
-0.025005 0.400992 0.710681 
-0.025296 0.401974 0.610681 
-0.025587 0.402956 0.510681 
-0.025878 0.403938 0.410681 
-0.026169 0.404920 0.310681 
-0.026460 0.405902 0.210681 
-0.026751 0.406885 0.110681 
0.346061 0.029697 0.105907 
0.346352 0.028714 0.205907 
0.346643 0.027732 0.305907 
0.346934 0.026750 0.405907 
0.347225 0.025768 0.505907 
0.347516 0.024786 0.605907 
0.347807 0.023804 0.705907 
0.348098 0.022821 0.805907 
0.348389 0.021839 0.905907 
0.348680 0.020857 1.005907 
0.348971 0.019875 1.105907 
0.349262 0.018893 1.205907 
0.349554 0.017911 1.305907 
0.349845 0.016928 1.405907 
0.350136 0.015946 1.505907 
0.350427 0.014964 1.605907 
0.350718 0.013982 1.705907 
0.351009 0.013000 1.805907 
0.351300 0.012018 1.905907 
0.351591 0.011035 2.005907 
0.351882 0.010053 2.105907 
0.352173 0.009071 2.205907 
0.352464 0.008089 2.305907 
0.352755 0.007107 2.405907 
0.353046 0.006125 2.505907 
0.353337 0.005142 2.605907 
0.353628 0.004160 2.705907 
0.353919 0.003178 2.805907 
0.354210 0.002196 2.905907 
0.354501 0.001214 3.005907 
0.354792 0.000232 3.105907 
0.355083 -0.000751 3.205907 
0.355375 -0.001733 3.305907 
0.355666 -0.002715 3.405907 
[...]
POINT_DATA 2674
SCALARS u float 1
LOOKUP_TABLE default
0.014156
0.013658
0.014890
0.015197
0.006457
0.006688
0.006985
0.006415
0.014198
0.013842
0.014750
0.014997
0.006410
0.006617
0.006812
0.006411
0.006460
0.006464
0.006472
0.006488
0.006517
0.006560
0.006618
0.006764
0.006842
0.006913
0.006972
0.007012
0.007028
0.007019
0.006928
0.006853
0.006767
0.006677
0.006591
0.006515
0.006456
0.006392
0.006387
0.006394
0.006408
0.006425
0.006440
0.006451
0.015127
0.015035
0.014923
0.014793
0.014646
0.014488
0.014323
0.013996
0.013851
0.013728
0.013635
0.013579
0.013564
0.013590
0.013763
0.013899
0.014057
0.014230
0.014407
0.014581
0.014744
0.015016
0.015117
0.015194
0.015244
0.015269
0.015269
0.015245
0.013862
0.013569
0.013278
0.012989
0.012702
0.012417
0.012135
0.011855
0.011578
0.011303
0.011032
0.010765
0.010501
0.010240
0.009985
0.009733
0.009487
0.009246
0.009010
0.008781
0.008559
0.008343
0.008136
0.007937
0.007747
0.007567
0.007397
0.007238
0.007092
0.006958
0.006838
0.006731
0.006640
0.006564
0.006504
0.006461
0.006434
0.006425
0.006432
0.014897
0.014599
0.014301
0.014006
0.013712
0.013419
0.013129
0.012840
0.012554
0.012270
0.011988
0.011709
0.011433
0.011160
0.010890
0.010623
0.010360
0.010102
0.009847
0.009598
0.009353
0.009114
0.008881
0.008654
0.008434
0.008222
0.008017
0.007822
0.007636
0.007460
0.007294
0.007141
0.006999
0.006871
0.006756
0.006657
0.006572
0.006503
0.006450
0.014598
0.014308
0.014020
0.013733
0.013449
0.013167
0.012887
0.012610
0.012335
0.012063
0.011795
0.011529
0.011267
0.011009
0.010755
0.010505
0.010260
0.010020
0.009785
0.009556
0.009333
0.009116
0.008907
0.008705
0.008511
0.008326
0.008150
0.007985
0.007829
0.007685
0.007553
0.007433
0.007326
0.007233
0.007154
0.007089
0.007040
0.007006
0.006987
0.013369
0.013081
0.012795
0.012512
0.012231
0.011953
0.011677
0.011405
0.011135
0.010869
0.010607
0.010349
0.010095
0.009845
0.009601
0.009361
0.009128
0.008901
0.008681
0.008467
0.008262
0.008065
0.007877
0.007699
0.007531
0.007374
0.007229
0.007097
0.006977
0.006872
0.006781
0.006706
0.006646
0.006602
0.006575
0.006564
0.006570
0.006593
0.006632
0.014919
0.014812
0.014679
0.014526
0.014362
0.014044
0.013915
0.013823
0.013777
0.013784
0.014598
0.014429
0.014255
0.014090
0.013948
0.014876
0.014971
0.015031
0.015055
0.015043
0.006384
0.006375
0.006379
0.006388
0.006399
0.006552
0.006499
0.006461
0.006436
0.006421
0.006840
0.006838
0.006808
0.006755
0.006688
0.006758
0.006685
0.006604
0.006525
0.006459
0.006388
0.006384
0.006397
0.006428
0.006475
0.006538
0.006618
0.006713
0.006822
0.006946
0.007084
0.007233
0.007395
0.007568
0.007751
0.007943
0.008145
0.008355
0.008572
0.008797
0.009028
0.009266
0.009509
0.009757
0.010010
0.010267
0.010529
0.010794
0.011063
0.011336
0.011611
0.011889
0.012170
0.012453
0.012739
0.013027
0.013317
0.013609
0.013902
0.013551
0.013262
0.012974
0.012689
0.012406
0.012126
0.011848
0.011573
0.011301
0.011032
0.010767
0.010505
0.010248
0.009995
0.009746
0.009503
0.009265
0.009033
0.008807
0.008589
0.008377
0.008174
0.007979
0.007793
0.007618
0.007453
0.007299
0.007157
0.007029
0.006913
0.006812
0.006726
0.006655
0.006600
0.006561
0.006539
0.006533
0.006545
0.006573
0.006812
0.006827
0.006859
0.006907
0.006970
0.007048
0.007140
0.007247
0.007367
0.007499
0.007644
0.007800
0.007967
0.008144
0.008330
0.008525
0.008729
0.008940
0.009158
0.009383
0.009614
0.009851
0.010093
0.010340
0.010592
0.010847
0.011107
0.011371
0.011638
0.011909
0.012182
0.012458
0.012737
0.013018
0.013302
0.013588
0.013875
0.014165
0.014457
0.014698
0.014401
0.014105
0.013810
0.013517
0.013226
0.012937
0.012651
0.012366
0.012084
0.011804
0.011527
0.011253
0.010982
0.010714
0.010451
0.010191
0.009935
0.009684
0.009438
0.009197
0.008962
0.008734
0.008512
0.008297
0.008091
0.007892
0.007703
0.007524
0.007356
0.007198
0.007053
0.006921
0.006802
0.006698
0.006608
0.006535
0.006477
0.006436
0.007392
0.008545
0.007733
0.007915
0.008092
0.009734
0.010751
0.011000
0.010243
0.006770
0.006951
0.007047
0.007148
0.006804
0.006865
0.012100
0.011835
0.013167
0.012374
0.012636
0.013685
0.011288
0.006692
0.013742
0.014227
0.006828
0.006821
0.006695
0.013466
0.013793
0.009838
0.010317
0.007024
0.006761
0.008970
0.010046
0.010688
0.007502
0.007175
0.006959
0.006714
0.011175
0.010522
0.008514
0.007302
0.007000
0.008705
0.010491
0.009021
0.007645
0.011994
0.007305
0.007181
0.008275
0.010966
0.006883
0.009486
0.012478
0.007434
0.007031
0.008445
0.008116
0.009234
0.008718
0.012908
0.007088
0.006809
0.013402
0.006779
0.013438
0.013761
0.014015
0.006807
0.006733
0.006780
0.006835
0.006628
0.013466
0.014143
0.009317
0.013145
0.013780
0.006847
0.006648
0.013436
0.013156
0.007253
0.006815
0.006750
0.012335
0.012650
0.006770
0.006882
0.012952
0.013168
0.006966
0.007120
0.007543
0.007442
0.006906
0.006677
0.010504
0.010263
0.006851
0.006707
0.008975
0.008745
0.009431
0.009891
0.010092
0.010736
0.007747
0.007232
0.007221
0.006800
0.008500
0.007911
0.008726
0.008499
0.009124
0.008484
0.008934
0.008312
0.009680
0.010029
0.011497
0.011858
0.006946
0.006619
0.012146
0.012806
0.012129
0.012317
0.011107
0.011708
0.010519
0.010759
0.011625
0.012253
0.011305
0.011988
0.009878
0.010560
0.011842
0.012564
0.010269
0.010948
0.010511
0.011206
0.010771
0.011414
0.009677
0.010321
0.007773
0.007510
0.011279
0.011529
0.009316
0.009604
0.007619
0.007114
0.012665
0.012994
0.007012
0.006656
0.008717
0.008112
0.007225
0.007064
0.006954
0.006797
0.011872
0.012155
0.008505
0.008364
0.007321
0.006871
0.007448
0.007281
0.007950
0.007668
0.009985
0.010230
0.008346
0.007751
0.007121
0.006727
0.008160
0.007656
0.007835
0.007361
0.007029
0.006882
0.006883
0.006609
0.008258
0.012872
0.013611
0.013704
0.014439
0.013961
0.007131
0.007362
0.011545
0.010966
0.011298
0.006830
0.008930
0.010276
0.010738
0.010505
0.010732
0.010992
0.012517
0.013209
0.012925
0.006852
0.006586
0.006816
0.006719
0.009963
0.009540
0.008224
0.007903
0.007599
0.008731
0.009528
0.009747
0.007782
0.008065
0.012916
0.012410
0.008256
0.008091
0.009010
0.009195
0.009450
0.010097
0.007977
0.007482
0.009826
0.009213
0.009399
0.009171
0.008962
0.009647
0.006619
0.006826
0.008813
0.009477
0.006907
0.008192
0.007196
0.007728
0.007964
0.007361
0.009412
0.009144
0.009727
0.010508
0.006385
0.006405
0.006569
0.006788
0.006500
0.006442
0.011632
0.012215
0.012561
0.013219
0.008582
0.010914
0.006391
0.006435
0.006402
0.013487
0.013700
0.006482
0.013146
0.013293
0.007276
0.011012
0.006517
0.007262
0.006537
0.011180
0.009226
0.010753
0.006811
0.010909
0.006774
0.009785
0.009385
0.006970
0.009446
0.006621
0.006896
0.006614
0.009579
0.006406
0.006446
0.009009
0.009145
0.012208
0.012403
0.012548
0.012752
0.007633
0.007825
0.008436
0.009836
0.011822
0.011550
0.007557
0.007717
0.008320
0.010023
0.008515
0.008644
0.011993
0.011743
0.006398
0.012952
0.006375
0.006418
0.013371
0.013545
0.006387
0.013345
0.013615
0.006381
0.006485
0.012870
0.013090
0.006381
0.006473
0.007624
0.007677
0.012002
0.012098
0.008961
0.009009
0.008281
0.008345
0.012684
0.012798
0.006705
0.006716
0.007149
0.007124
0.011395
0.011482
0.006773
0.007150
0.007046
0.007306
0.007219
0.011262
0.011474
0.009934
0.010159
0.006428
0.012139
0.012408
0.009077
0.008892
0.011478
0.011744
0.010661
0.009401
0.009478
0.010661
0.006964
0.010918
0.006616
0.006609
0.006453
0.006495
0.006687
0.006700
0.006607
0.006612
0.006423
0.006439
0.008448
0.008514
0.009136
0.009338
0.007464
0.007338
0.009364
0.009573
0.011127
0.007410
0.009621
0.009893
0.009163
0.009240
0.010935
0.011026
0.008598
0.008429
0.011697
0.011791
0.012358
0.012462
0.006865
0.006832
0.008359
0.008206
0.009605
0.009713
0.008649
0.008823
0.011805
0.012068
0.010115
0.010369
0.008706
0.008804
0.008075
0.007940
0.007562
0.007852
0.007720
0.011149
0.006389
0.006408
0.006429
0.006383
0.012720
0.013006
0.006377
0.006398
0.006397
0.013588
0.013879
0.006540
0.013583
0.008379
0.010776
0.010678
0.011242
0.011124
0.007284
0.007270
0.011889
0.006635
0.007520
0.007452
0.006471
0.006478
0.007893
0.007827
0.006692
0.006692
0.010400
0.010410
0.006541
0.006541
0.012442
0.012718
0.013105
0.013378
0.008799
0.012903
0.013026
0.008083
0.008166
0.011342
0.011006
0.007041
0.010461
0.010585
0.009954
0.007110
0.010202
0.010173
0.007001
0.006409
0.006486
0.009894
0.007461
0.006481
0.006461
0.006860
0.006787
0.007384
0.010564
0.007599
0.008660
0.008419
0.007969
0.010794
0.009976
0.011085
0.009730
0.010247
0.011357
0.010549
0.006536
0.006980
0.006821
0.006597
0.013373
0.012702
0.013016
0.011877
0.009185
0.014042
0.006393
0.006408
0.014341
0.014210
0.006387
0.006391
0.014643
0.011892
0.011514
0.007773
0.008120
0.013322
0.009516
0.011627
0.012215
0.011236
0.009240
0.011829
0.006447
0.013750
0.008782
0.009692
0.010343
0.012514
0.013063
0.009973
0.009092
0.009326
0.012644
0.012150
0.006520
0.007256
0.010129
0.011112
0.012823
0.013505
0.006500
0.006719
0.007474
0.006624
0.010740
0.009778
0.012457
0.006598
0.006740
0.007078
0.007282
0.009389
0.008975
0.006793
0.014173
0.006400
0.006434
0.013875
0.013652
0.006474
0.006387
0.014531
0.013873
0.006428
0.009418
0.006475
0.013590
0.013729
0.006465
0.008441
0.008620
0.008971
0.009104
0.006680
0.012927
0.012728
0.009293
0.009099
0.008914
0.009815
0.009299
0.009491
0.009688
0.007223
0.007336
0.007477
0.007628
0.007557
0.007897
0.012442
0.011862
0.014504
0.006383
0.007352
0.007696
0.007077
0.013663
0.007197
0.007558
0.007167
0.006473
0.006424
0.013937
0.006427
0.013965
0.009592
0.009109
0.007077
0.007399
0.008520
0.008990
0.007237
0.006945
0.011088
0.011330
0.007992
0.008162
0.010066
0.009542
0.010853
0.010369
0.008214
0.008599
0.013518
0.012893
0.012150
0.011568
0.012609
0.012422
0.008707
0.008858
0.011027
0.010877
0.011146
0.010567
0.013256
0.006588
0.006629
0.008346
0.008821
0.011837
0.011254
0.011460
0.010907
0.009793
0.010331
0.012939
0.012329
0.010048
0.010549
0.009940
0.009759
0.010824
0.010619
0.008203
0.008390
0.013205
0.013024
0.006700
0.006740
0.006516
0.006815
0.011774
0.011615
0.006674
0.006850
0.006948
0.006962
0.007780
0.007953
0.006825
0.013621
0.006475
0.013360
0.006530
0.013838
0.013482
0.006444
0.006519
0.011594
0.014107
0.006392
0.006404
0.014764
0.008500
0.008831
0.014169
0.006403
0.009901
0.009543
0.008734
0.009231
0.007653
0.007772
0.011593
0.011401
0.011784
0.012007
0.010507
0.010252
0.006927
0.010193
0.009999
0.007115
0.008187
0.007486
0.012083
0.012710
0.007968
0.008344
0.014359
0.006383
0.012419
0.012109
0.012254
0.006711
0.007395
0.007082
0.007795
0.006840
0.007742
0.013197
0.013119
0.009177
0.008656
0.008243
0.008924
0.010491
0.011459
0.010199
0.011692
0.010736
0.011181
0.006820
0.007600
0.007417
0.007292
0.006886
0.007020
0.013127
0.012624
0.013461
0.013792
0.009605
0.012128
0.006577
0.014563
0.014469
0.006723
0.006508
0.014833
0.014703
0.006726
0.007060
0.006915
0.008014
0.012180
0.007960
0.012093
0.006593
0.010257
0.010744
0.011896
0.013942
0.006964
0.006794
0.011810
0.010689
0.010215
0.013865
0.007677
0.010495
0.006868
0.007582
0.006709
0.010447
0.010031
0.009995
0.011027
0.010965
0.008443
0.008631
0.009304
0.011382
0.013010
0.012722
0.008397
0.008612
0.009314
0.011312
0.009527
0.009508
0.012916
0.012619
0.014467
0.006645
0.006663
0.014112
0.006743
0.006782
0.006503
0.014633
0.014457
0.006561
0.006918
0.008536
0.008551
0.010017
0.010007
0.011023
0.011047
0.009291
0.009288
0.006841
0.012558
0.012504
0.007894
0.007858
0.013748
0.013596
0.006743
0.007843
0.007767
0.007974
0.007901
0.006655
0.012375
0.012260
0.012865
0.012822
0.011012
0.010916
0.006654
0.006801
0.006864
0.014249
0.014168
0.014039
0.013886
0.006744
0.012602
0.012454
0.007454
0.007504
0.009914
0.009971
0.011571
0.011619
0.012878
0.012730
0.010501
0.010477
0.011484
0.011588
0.007120
0.007031
0.007296
0.007154
0.007737
0.007688
0.013147
0.013002
0.007018
0.006815
0.007144
0.006967
0.007538
0.007433
0.007248
0.007173
0.009478
0.009471
0.010480
0.010402
0.010226
0.010158
0.008093
0.008063
0.012073
0.011948
0.010742
0.010655
0.010245
0.010225
0.012089
0.012038
0.010752
0.010726
0.011257
0.011149
0.009353
0.009380
0.011301
0.011269
0.006990
0.006908
0.009115
0.009127
0.009694
0.009656
0.009740
0.009725
0.008836
0.008830
0.013291
0.013217
0.008466
0.008553
0.008530
0.006679
0.006761
0.006833
0.010914
0.006656
0.014341
0.014179
0.006456
0.014844
0.014651
0.006781
0.006807
0.006910
0.012406
0.009384
0.011890
0.011863
0.007399
0.007321
0.007156
0.007550
0.007609
0.008783
0.008774
0.008140
0.008154
0.008355
0.008337
0.013303
0.013449
0.012293
0.012242
0.013552
0.013628
0.009823
0.007916
0.009062
0.009063
0.007423
0.007289
0.013078
0.013025
0.014793
0.014749
0.006580
0.007785
0.008048
0.008008
0.007593
0.007473
0.008239
0.008252
0.007744
0.007644
0.008293
0.008218
0.007203
0.007079
0.011388
0.012904
0.011645
0.011098
0.011930
0.010733
0.009268
0.008943
0.008719
0.009778
0.009525
0.010117
0.010428
0.008295
0.007871
0.008089
0.007674
0.007307
0.007473
0.006685
0.006377
0.006588
0.006403
0.006434
0.012821
0.006389
0.013130
0.006546
0.013263
0.012605
0.012864
0.006411
0.006387
0.012404
0.012673
0.008776
0.008571
0.010930
0.010675
0.008739
0.008954
0.009274
0.009486
0.006733
0.006791
0.006468
0.006476
0.006638
0.006589
0.006524
0.006551
0.008572
0.008368
0.006707
0.006646
0.008316
0.008121
0.011236
0.011552
0.011704
0.011454
0.011226
0.010967
0.010699
0.010441
0.009014
0.009233
0.010099
0.009831
0.009794
0.009562
0.007222
0.007102
0.008074
0.007898
0.007298
0.007433
0.007578
0.007712
0.007101
0.006985
0.006939
0.006844
0.006394
0.006463
0.006400
0.006381
0.006399
0.012877
0.013099
0.013040
0.012545
0.012271
0.006398
0.006390
0.012370
0.012757
0.008822
0.008936
0.011721
0.011607
0.008266
0.008158
0.008678
0.008407
0.007078
0.007225
0.008522
0.008259
0.006512
0.006549
0.006540
0.006539
0.008923
0.008647
0.008683
0.008557
0.006886
0.006922
0.011213
0.011064
0.007265
0.007197
0.007953
0.008040
0.006760
0.006760
0.010830
0.010964
0.007371
0.007438
0.007827
0.007727
0.006593
0.006662
0.008302
0.008054
0.009249
0.009364
0.009754
0.009914
0.009081
0.009218
0.009194
0.008922
0.011424
0.011059
0.007467
0.007292
0.006622
0.006666
0.006928
0.006830
0.006707
0.006775
0.010869
0.011231
0.007426
0.007617
0.008097
0.007860
0.010565
0.010265
0.009484
0.009179
0.010952
0.010595
0.010494
0.010627
0.007704
0.007930
0.007610
0.007538
0.011651
0.011253
0.011284
0.011405
0.010351
0.010046
0.010116
0.010009
0.009490
0.009609
0.009730
0.009420
0.007303
0.007147
0.007034
0.007094
0.012065
0.011894
0.006499
0.006470
0.012896
0.012570
0.012508
0.012362
0.006417
0.006451
0.012155
0.012417
0.006594
0.006616
0.006497
0.012668
0.012786
0.006378
0.006388
0.008500
0.006507
0.006424
0.013211
0.013427
0.013142
0.006419
0.006579
0.013458
0.013028
0.008164
0.008023
0.008362
0.008453
0.012114
0.012233
0.012405
0.012022
0.006823
0.006434
0.013670
0.013290
0.006455
0.006515
0.006486
0.013401
0.007131
0.006969
0.011725
0.012055
0.011504
0.011882
0.007087
0.006960
0.006484
0.006401
0.012727
0.013139
0.010022
0.009691
0.010572
0.010201
0.010309
0.009957
0.006430
0.006396
0.007700
0.007882
0.006413
0.006409
0.006418
0.013469
0.006523
0.007746
0.007559
0.006429
0.006421
0.006685
0.007452
0.007590
0.011726
0.011961
0.006379
0.006422
0.006437
0.006666
0.012178
0.011901
0.012176
0.011769
0.007793
0.007577
0.006400
0.013354
0.006477
0.010792
0.010408
0.006424
0.006438
0.006464
0.006698
0.010239
0.010426
0.006848
0.006750
0.010336
0.010250
0.010014
0.010239
0.006459
0.013427
0.006540
0.006439
0.013782
0.013455
0.011193
0.011415
0.006443
0.012070
0.012392
0.010787
0.009359
0.011626
0.009590
0.009804
0.011020
0.011307
0.010275
0.008753
0.007746
0.008922
0.007533
0.008305
0.008138
0.008504
0.007867
0.007231
0.007322
0.007155
0.006994
0.007060
0.007017
0.006762
0.014353
0.013345
0.006761
0.010746
0.011526
0.011758
0.011026
0.007769
0.008291
0.012671
0.012126
0.007173
0.006796
0.012540
0.011772
0.012051
0.011301
0.010126
0.009442
0.009621
0.009000
0.007919
0.008468
0.007100
0.007559
0.006947
0.007352
0.007103
0.006775
0.013286
0.012564
0.008056
0.008720
0.007237
0.006859
0.008179
0.007593
0.008743
0.009386
0.009810
0.010407
0.012241
0.011597
0.009850
0.009217
0.010925
0.010353
0.009074
0.008471
0.007466
0.008003
0.008794
0.008283
0.007848
0.007372
0.007681
0.007256
0.007001
0.007490
0.006938
0.007038
0.006920
0.012654
0.006705
0.007031
0.006864
0.006883
0.009887
0.009515
0.007043
0.010534
0.010796
0.012659
0.013055
0.012892
0.011939
0.007687
0.007451
0.007668
0.007957
0.009061
0.008788
0.007496
0.008272
0.008205
0.008547
0.008596
0.009475
0.008157
0.007391
0.008406
0.009292
0.007258
0.007968
0.010273
0.011197
0.007971
0.008815
0.007851
0.008680
0.012201
0.011221
0.012372
0.011422
0.012016
0.011042
0.007114
0.006929
0.010729
0.011062
0.010890
0.011422
0.010793
0.011757
0.007218
0.007005
0.007648
0.008444
0.010526
0.011514
0.007566
0.007386
0.007935
0.008221
0.007239
0.006715
0.008806
0.008521
0.010184
0.009750
0.010290
0.010563
0.007266
0.007486
0.009356
0.009050
0.009944
0.010912
0.010094
0.009174
0.009589
0.009280
0.008791
0.009632
0.007131
0.007394
0.007466
0.006844
0.006928
0.007578
0.008157
0.008992
0.007106
0.007861
0.010030
0.010288
0.013385
0.012393
0.006666
0.007157
0.007078
0.014351
0.007348
0.006780
0.007090
0.012343
0.012597
0.006842
0.006680
0.006662
0.006894
0.006978
0.006774
0.008007
0.012327
0.013064
0.013742
0.013580
0.014095
0.013415
0.012900
0.007063
0.006966
0.006793
0.013935
0.009088
0.007009
0.013542
0.014606
0.012423
0.012816
0.008091
0.007804
0.007637
0.006682
0.008099
0.008338
0.013195
0.012161
0.012726
0.013673
0.007426
0.012985
0.006751
0.007113
0.008664
0.008377
0.006633
0.007004
0.013047
0.013295
0.010046
0.010042
0.007195
0.007811
0.007273
0.010567
0.011272
0.007092
0.007817
0.007555
0.011834
0.012164
0.006726
0.012660
0.011641
0.007053
0.007721
0.012368
0.012101
0.011874
0.006973
0.007146
0.009185
0.008218
0.011637
0.011233
0.010545
0.013370
0.006909
0.007020
0.009617
0.010343
0.007029
0.012383
0.011867
0.009837
0.008949
0.007008
0.010661
0.010035
0.007021
0.011934
0.011572
0.013070
0.014042
0.007001
0.013152
0.013793
0.014168
0.011033
0.011290
0.009734
0.010585
0.010386
0.009427
0.006831
0.010146
0.010926
0.013506
0.013720
0.006971
0.013621
0.014007
0.013252
0.013615
0.006987
0.013394
0.006702
0.013854
0.006908
0.006839
0.012871
0.014497
0.013123
0.012570
0.010790
0.011978
0.011110
0.011394
0.011698
0.008287
0.009353
0.009538
0.008082
0.008961
0.009174
0.007714
0.007272
0.007028
0.007134
0.006646
0.006871
0.014809
0.014574
0.014286
0.014163
0.014045
0.013929
0.007066
0.007255
0.011255
0.011319
0.008738
0.008682
0.007530
0.007347
0.011715
0.011786
0.006780
0.007036
0.008986
0.008948
0.006957
0.007194
0.013497
0.013376
0.011987
0.012060
0.010143
0.010117
0.010471
0.010786
0.010434
0.010738
0.011043
0.011102
0.009382
0.009394
0.007952
0.008069
0.009169
0.009193
0.007738
0.007895
0.007582
0.007726
0.006794
0.006620
0.006789
0.014811
0.014334
0.014129
0.014425
0.014506
0.014553
0.014315
0.006584
0.006992
0.014825
0.014944
0.014116
0.013744
0.013430
0.007031
0.006899
0.007009
0.007149
0.007156
0.007259
0.007954
0.008011
0.013072
0.012897
0.007573
0.007604
0.009647
0.009645
0.010310
0.010318
0.010635
0.010619
0.007328
0.007556
0.008846
0.008875
0.007657
0.007449
0.009640
0.009630
0.010137
0.010089
0.010315
0.010256
0.010588
0.010515
0.008953
0.008914
0.008812
0.008759
0.007017
0.007290
0.012611
0.012489
0.010932
0.010956
0.007405
0.007304
0.007779
0.007842
0.008611
0.008538
0.008602
0.008615
0.009270
0.009282
0.010019
0.010016
0.008026
0.008157
0.008148
0.008195
0.012073
0.012104
0.010784
0.010871
0.008435
0.008341
0.011210
0.011240
0.008410
0.008376
0.011839
0.011877
0.012370
0.012323
0.007164
0.007417
0.009902
0.009874
0.011065
0.011168
0.007790
0.007600
0.009098
0.009123
0.011436
0.011520
0.011554
0.011514
0.006692
0.006895
0.013513
0.013571
0.014305
0.014251
0.006673
0.007054
0.013906
0.013964
0.014871
0.015047
0.006883
0.007120
0.006871
0.007184
0.006957
0.006685
0.013801
0.013689
0.006516
0.006958
0.006874
0.006752
0.006704
0.006808
0.013850
0.014027
0.009832
0.014659
0.014498
0.014977
0.014972
0.007457
0.014681
0.014739
0.014794
0.015043