# vtk DataFile Version 2.0
Unstructured Grid Example
ASCII
DATASET UNSTRUCTURED_GRID
POINTS 2674 float
0.004046 0.494946 -0.001831 
0.504495 -0.004605 -0.000852 
0.004943 -0.505054 -0.000321 
-0.495505 -0.005503 -0.001300 
0.002256 0.500987 3.998169 
0.502705 0.001436 3.999148 
0.003153 -0.499013 3.999679 
-0.497295 0.000539 3.998700 
0.004158 0.369946 -0.001642 
0.379495 -0.004718 -0.000908 
0.004831 -0.380054 -0.000510 
-0.370505 -0.005390 -0.001244 
0.002368 0.375987 3.998358 
0.377705 0.001324 3.999092 
0.003041 -0.374013 3.999490 
-0.372295 0.000651 3.998756 
0.099810 0.491467 3.998227 
0.193632 0.463099 3.998312 
0.280117 0.416971 3.998420 
0.355941 0.354858 3.998548 
0.418190 0.279145 3.998690 
0.464473 0.192743 3.998842 
0.493010 0.098972 3.998996 
0.493185 -0.096118 3.999291 
0.464816 -0.189940 3.999420 
0.418689 -0.276425 3.999529 
0.356575 -0.352249 3.999616 
0.280863 -0.414498 3.999676 
0.194461 -0.460781 3.999707 
0.100690 -0.489318 3.999708 
-0.094401 -0.489493 3.999621 
-0.188223 -0.461124 3.999536 
-0.274708 -0.414997 3.999427 
-0.350532 -0.352883 3.999300 
-0.412781 -0.277171 3.999157 
-0.459064 -0.190769 3.999006 
-0.487601 -0.096998 3.998852 
-0.487776 0.098092 3.998557 
-0.459407 0.191915 3.998428 
-0.413279 0.278399 3.998318 
-0.351166 0.354223 3.998232 
-0.275454 0.416473 3.998172 
-0.189052 0.462755 3.998141 
-0.095281 0.491292 3.998140 
-0.485985 0.092051 -0.001443 
-0.457617 0.185873 -0.001572 
-0.411489 0.272358 -0.001682 
-0.349376 0.348182 -0.001768 
-0.273663 0.410432 -0.001828 
-0.187261 0.456714 -0.001859 
-0.093490 0.485251 -0.001860 
0.101600 0.485426 -0.001773 
0.195422 0.457057 -0.001688 
0.281907 0.410930 -0.001580 
0.357731 0.348817 -0.001452 
0.419980 0.273104 -0.001310 
0.466263 0.186702 -0.001158 
0.494800 0.092931 -0.001004 
0.494975 -0.102159 -0.000709 
0.466606 -0.195981 -0.000580 
0.420479 -0.282466 -0.000471 
0.358365 -0.358290 -0.000384 
0.282653 -0.420540 -0.000324 
0.196251 -0.466822 -0.000293 
0.102480 -0.495359 -0.000292 
-0.092610 -0.495534 -0.000379 
-0.186432 -0.467165 -0.000464 
-0.272917 -0.421038 -0.000573 
-0.348741 -0.358925 -0.000700 
-0.410991 -0.283212 -0.000843 
-0.457273 -0.196810 -0.000994 
-0.485810 -0.103039 -0.001148 
0.004001 0.495097 0.098169 
0.003957 0.495248 0.198169 
0.003912 0.495399 0.298169 
0.003867 0.495550 0.398169 
0.003822 0.495701 0.498169 
0.003778 0.495852 0.598169 
0.003733 0.496003 0.698169 
0.003688 0.496154 0.798169 
0.003643 0.496305 0.898169 
0.003599 0.496456 0.998169 
0.003554 0.496607 1.098169 
0.003509 0.496758 1.198169 
0.003464 0.496909 1.298169 
0.003420 0.497060 1.398169 
0.003375 0.497211 1.498169 
0.003330 0.497362 1.598169 
0.003285 0.497514 1.698169 
0.003241 0.497665 1.798169 
0.003196 0.497816 1.898169 
0.003151 0.497967 1.998169 
0.003106 0.498118 2.098169 
0.003062 0.498269 2.198169 
0.003017 0.498420 2.298169 
0.002972 0.498571 2.398169 
0.002927 0.498722 2.498169 
0.002883 0.498873 2.598169 
0.002838 0.499024 2.698169 
0.002793 0.499175 2.798169 
0.002748 0.499326 2.898169 
0.002704 0.499477 2.998169 
0.002659 0.499628 3.098169 
0.002614 0.499779 3.198169 
0.002569 0.499930 3.298169 
0.002525 0.500081 3.398169 
0.002480 0.500232 3.498169 
0.002435 0.500383 3.598169 
0.002390 0.500534 3.698169 
0.002346 0.500685 3.798169 
0.002301 0.500836 3.898169 
-0.495550 -0.005352 0.098700 
-0.495595 -0.005201 0.198700 
-0.495639 -0.005049 0.298700 
-0.495684 -0.004898 0.398700 
-0.495729 -0.004747 0.498700 
-0.495774 -0.004596 0.598700 
-0.495818 -0.004445 0.698700 
-0.495863 -0.004294 0.798700 
-0.495908 -0.004143 0.898700 
-0.495953 -0.003992 0.998700 
-0.495998 -0.003841 1.098700 
-0.496042 -0.003690 1.198700 
-0.496087 -0.003539 1.298700 
-0.496132 -0.003388 1.398700 
-0.496177 -0.003237 1.498700 
-0.496221 -0.003086 1.598700 
-0.496266 -0.002935 1.698700 
-0.496311 -0.002784 1.798700 
-0.496356 -0.002633 1.898700 
-0.496400 -0.002482 1.998700 
-0.496445 -0.002331 2.098700 
-0.496490 -0.002180 2.198700 
-0.496535 -0.002029 2.298700 
-0.496579 -0.001878 2.398700 
-0.496624 -0.001727 2.498700 
-0.496669 -0.001576 2.598700 
-0.496714 -0.001425 2.698700 
-0.496758 -0.001274 2.798700 
-0.496803 -0.001123 2.898700 
-0.496848 -0.000972 2.998700 
-0.496893 -0.000821 3.098700 
-0.496937 -0.000670 3.198700 
-0.496982 -0.000519 3.298700 
-0.497027 -0.000368 3.398700 
-0.497072 -0.000217 3.498700 
-0.497116 -0.000065 3.598700 
-0.497161 0.000086 3.698700 
-0.497206 0.000237 3.798700 
-0.497251 0.000388 3.898700 
0.004899 -0.504903 0.099679 
0.004854 -0.504752 0.199679 
0.004809 -0.504601 0.299679 
0.004764 -0.504450 0.399679 
0.004720 -0.504299 0.499679 
0.004675 -0.504148 0.599679 
0.004630 -0.503997 0.699679 
0.004585 -0.503846 0.799679 
0.004541 -0.503695 0.899679 
0.004496 -0.503544 0.999679 
0.004451 -0.503393 1.099679 
0.004406 -0.503242 1.199679 
0.004362 -0.503091 1.299679 
0.004317 -0.502940 1.399679 
0.004272 -0.502789 1.499679 
0.004227 -0.502638 1.599679 
0.004183 -0.502486 1.699679 
0.004138 -0.502335 1.799679 
0.004093 -0.502184 1.899679 
0.004048 -0.502033 1.999679 
0.004004 -0.501882 2.099679 
0.003959 -0.501731 2.199679 
0.003914 -0.501580 2.299679 
0.003869 -0.501429 2.399679 
0.003824 -0.501278 2.499679 
0.003780 -0.501127 2.599679 
0.003735 -0.500976 2.699679 
0.003690 -0.500825 2.799679 
0.003645 -0.500674 2.899679 
0.003601 -0.500523 2.999679 
0.003556 -0.500372 3.099679 
0.003511 -0.500221 3.199679 
0.003466 -0.500070 3.299679 
0.003422 -0.499919 3.399679 
0.003377 -0.499768 3.499679 
0.003332 -0.499617 3.599679 
0.003287 -0.499466 3.699679 
0.003243 -0.499315 3.799679 
0.003198 -0.499164 3.899679 
0.504450 -0.004454 0.099148 
0.504405 -0.004303 0.199148 
0.504361 -0.004152 0.299148 
0.504316 -0.004001 0.399148 
0.504271 -0.003850 0.499148 
0.504226 -0.003699 0.599148 
0.504182 -0.003548 0.699148 
0.504137 -0.003397 0.799148 
0.504092 -0.003246 0.899148 
0.504047 -0.003095 0.999148 
0.504002 -0.002944 1.099148 
0.503958 -0.002793 1.199148 
0.503913 -0.002642 1.299148 
0.503868 -0.002491 1.399148 
0.503823 -0.002340 1.499148 
0.503779 -0.002189 1.599148 
0.503734 -0.002038 1.699148 
0.503689 -0.001887 1.799148 
0.503644 -0.001736 1.899148 
0.503600 -0.001585 1.999148 
0.503555 -0.001434 2.099148 
0.503510 -0.001283 2.199148 
0.503465 -0.001132 2.299148 
0.503421 -0.000981 2.399148 
0.503376 -0.000830 2.499148 
0.503331 -0.000679 2.599148 
0.503286 -0.000528 2.699148 
0.503242 -0.000377 2.799148 
0.503197 -0.000226 2.899148 
0.503152 -0.000074 2.999148 
0.503107 0.000077 3.099148 
0.503063 0.000228 3.199148 
0.503018 0.000379 3.299148 
0.502973 0.000530 3.399148 
0.502928 0.000681 3.499148 
0.502884 0.000832 3.599148 
0.502839 0.000983 3.699148 
0.502794 0.001134 3.799148 
0.502749 0.001285 3.899148 
-0.357814 0.091678 -0.001385 
-0.320433 0.182155 -0.001505 
-0.260908 0.259873 -0.001595 
-0.183297 0.319537 -0.001651 
-0.092887 0.357081 -0.001667 
0.101227 0.357255 -0.001580 
0.191703 0.319874 -0.001483 
0.269422 0.260349 -0.001358 
0.329086 0.182737 -0.001214 
0.366630 0.092328 -0.001061 
0.101877 -0.367189 -0.000486 
0.192286 -0.329645 -0.000502 
0.269898 -0.269981 -0.000557 
0.329423 -0.192263 -0.000648 
0.366804 -0.101786 -0.000767 
-0.092237 -0.367363 -0.000572 
-0.182714 -0.329982 -0.000670 
-0.260432 -0.270457 -0.000794 
-0.320097 -0.192845 -0.000938 
-0.357640 -0.102436 -0.001092 
-0.359605 0.097719 3.998615 
-0.322223 0.188196 3.998495 
-0.262698 0.265914 3.998405 
-0.185087 0.325579 3.998349 
-0.094678 0.363122 3.998333 
0.364840 0.098369 3.998939 
0.327296 0.188779 3.998786 
0.267632 0.266390 3.998642 
0.189913 0.325915 3.998517 
0.099437 0.363296 3.998420 
0.100087 -0.361148 3.999514 
0.190496 -0.323604 3.999498 
0.268108 -0.263940 3.999443 
0.327632 -0.186221 3.999352 
0.365014 -0.095745 3.999233 
-0.094028 -0.361322 3.999428 
-0.184504 -0.323941 3.999330 
-0.262223 -0.264416 3.999206 
-0.321887 -0.186804 3.999062 
-0.359431 -0.096395 3.998908 
0.002413 0.375836 3.898358 
0.002458 0.375685 3.798358 
0.002502 0.375534 3.698358 
0.002547 0.375383 3.598358 
0.002592 0.375232 3.498358 
0.002637 0.375081 3.398358 
0.002681 0.374930 3.298358 
0.002726 0.374779 3.198358 
0.002771 0.374628 3.098358 
0.002816 0.374477 2.998358 
0.002860 0.374326 2.898358 
0.002905 0.374175 2.798358 
0.002950 0.374024 2.698358 
0.002995 0.373873 2.598358 
0.003039 0.373722 2.498358 
0.003084 0.373571 2.398358 
0.003129 0.373420 2.298358 
0.003174 0.373269 2.198358 
0.003218 0.373118 2.098358 
0.003263 0.372967 1.998358 
0.003308 0.372816 1.898358 
0.003353 0.372665 1.798358 
0.003398 0.372514 1.698358 
0.003442 0.372362 1.598358 
0.003487 0.372211 1.498358 
0.003532 0.372060 1.398358 
0.003577 0.371909 1.298358 
0.003621 0.371758 1.198358 
0.003666 0.371607 1.098358 
0.003711 0.371456 0.998358 
0.003756 0.371305 0.898358 
0.003800 0.371154 0.798358 
0.003845 0.371003 0.698358 
0.003890 0.370852 0.598358 
0.003935 0.370701 0.498358 
0.003979 0.370550 0.398358 
0.004024 0.370399 0.298358 
0.004069 0.370248 0.198358 
0.004114 0.370097 0.098358 
0.379450 -0.004567 0.099092 
0.379405 -0.004416 0.199092 
0.379361 -0.004264 0.299092 
0.379316 -0.004113 0.399092 
0.379271 -0.003962 0.499092 
0.379226 -0.003811 0.599092 
0.379182 -0.003660 0.699092 
0.379137 -0.003509 0.799092 
0.379092 -0.003358 0.899092 
0.379047 -0.003207 0.999092 
0.379002 -0.003056 1.099092 
0.378958 -0.002905 1.199092 
0.378913 -0.002754 1.299092 
0.378868 -0.002603 1.399092 
0.378823 -0.002452 1.499092 
0.378779 -0.002301 1.599092 
0.378734 -0.002150 1.699092 
0.378689 -0.001999 1.799092 
0.378644 -0.001848 1.899092 
0.378600 -0.001697 1.999092 
0.378555 -0.001546 2.099092 
0.378510 -0.001395 2.199092 
0.378465 -0.001244 2.299092 
0.378421 -0.001093 2.399092 
0.378376 -0.000942 2.499092 
0.378331 -0.000791 2.599092 
0.378286 -0.000640 2.699092 
0.378242 -0.000489 2.799092 
0.378197 -0.000338 2.899092 
0.378152 -0.000187 2.999092 
0.378107 -0.000036 3.099092 
0.378063 0.000115 3.199092 
0.378018 0.000266 3.299092 
0.377973 0.000417 3.399092 
[...]
POINT_DATA 2674
SCALARS u float 1
LOOKUP_TABLE default
0.014156
0.013658
0.014890
0.015197
0.006457
0.006688
0.006985
0.006415
0.014198
0.013842
0.014750
0.014997
0.006410
0.006617
0.006812
0.006411
0.006460
0.006464
0.006472
0.006488
0.006517
0.006560
0.006618
0.006764
0.006842
0.006913
0.006972
0.007012
0.007028
0.007019
0.006928
0.006853
0.006767
0.006677
0.006591
0.006515
0.006456
0.006392
0.006387
0.006394
0.006408
0.006425
0.006440
0.006451
0.015127
0.015035
0.014923
0.014793
0.014646
0.014488
0.014323
0.013996
0.013851
0.013728
0.013635
0.013579
0.013564
0.013590
0.013763
0.013899
0.014057
0.014230
0.014407
0.014581
0.014744
0.015016
0.015117
0.015194
0.015244
0.015269
0.015269
0.015245
0.013862
0.013569
0.013278
0.012989
0.012702
0.012417
0.012135
0.011855
0.011578
0.011303
0.011032
0.010765
0.010501
0.010240
0.009985
0.009733
0.009487
0.009246
0.009010
0.008781
0.008559
0.008343
0.008136
0.007937
0.007747
0.007567
0.007397
0.007238
0.007092
0.006958
0.006838
0.006731
0.006640
0.006564
0.006504
0.006461
0.006434
0.006425
0.006432
0.014897
0.014599
0.014301
0.014006
0.013712
0.013419
0.013129
0.012840
0.012554
0.012270
0.011988
0.011709
0.011433
0.011160
0.010890
0.010623
0.010360
0.010102
0.009847
0.009598
0.009353
0.009114
0.008881
0.008654
0.008434
0.008222
0.008017
0.007822
0.007636
0.007460
0.007294
0.007141
0.006999
0.006871
0.006756
0.006657
0.006572
0.006503
0.006450
0.014598
0.014308
0.014020
0.013733
0.013449
0.013167
0.012887
0.012610
0.012335
0.012063
0.011795
0.011529
0.011267
0.011009
0.010755
0.010505
0.010260
0.010020
0.009785
0.009556
0.009333
0.009116
0.008907
0.008705
0.008511
0.008326
0.008150
0.007985
0.007829
0.007685
0.007553
0.007433
0.007326
0.007233
0.007154
0.007089
0.007040
0.007006
0.006987
0.013369
0.013081
0.012795
0.012512
0.012231
0.011953
0.011677
0.011405
0.011135
0.010869
0.010607
0.010349
0.010095
0.009845
0.009601
0.009361
0.009128
0.008901
0.008681
0.008467
0.008262
0.008065
0.007877
0.007699
0.007531
0.007374
0.007229
0.007097
0.006977
0.006872
0.006781
0.006706
0.006646
0.006602
0.006575
0.006564
0.006570
0.006593
0.006632
0.014919
0.014812
0.014679
0.014526
0.014362
0.014044
0.013915
0.013823
0.013777
0.013784
0.014598
0.014429
0.014255
0.014090
0.013948
0.014876
0.014971
0.015031
0.015055
0.015043
0.006384
0.006375
0.006379
0.006388
0.006399
0.006552
0.006499
0.006461
0.006436
0.006421
0.006840
0.006838
0.006808
0.006755
0.006688
0.006758
0.006685
0.006604
0.006525
0.006459
0.006388
0.006384
0.006397
0.006428
0.006475
0.006538
0.006618
0.006713
0.006822
0.006946
0.007084
0.007233
0.007395
0.007568
0.007751
0.007943
0.008145
0.008355
0.008572
0.008797
0.009028
0.009266
0.009509
0.009757
0.010010
0.010267
0.010529
0.010794
0.011063
0.011336
0.011611
0.011889
0.012170
0.012453
0.012739
0.013027
0.013317
0.013609
0.013902
0.013551
0.013262
0.012974
0.012689
0.012406
0.012126
0.011848
0.011573
0.011301
0.011032
0.010767
0.010505
0.010248
0.009995
0.009746
0.009503
0.009265
0.009033
0.008807
0.008589
0.008377
0.008174
0.007979
0.007793
0.007618
0.007453
0.007299
0.007157
0.007029
0.006913
0.006812
0.006726
0.006655
0.006600
0.006561
0.006539
0.006533
0.006545
0.006573
0.006812
0.006827
0.006859
0.006907
0.006970
0.007048
0.007140
0.007247
0.007367
0.007499
0.007644
0.007800
0.007967
0.008144
0.008330
0.008525
0.008729
0.008940
0.009158
0.009383
0.009614
0.009851
0.010093
0.010340
0.010592
0.010847
0.011107
0.011371
0.011638
0.011909
0.012182
0.012458
0.012737
0.013018
0.013302
0.013588
0.013875
0.014165
0.014457
0.014698
0.014401
0.014105
0.013810
0.013517
0.013226
0.012937
0.012651
0.012366
0.012084
0.011804
0.011527
0.011253
0.010982
0.010714
0.010451
0.010191
0.009935
0.009684
0.009438
0.009197
0.008962
0.008734
0.008512
0.008297
0.008091
0.007892
0.007703
0.007524
0.007356
0.007198
0.007053
0.006921
0.006802
0.006698
0.006608
0.006535
0.006477
0.006436
0.007392
0.008545
0.007733
0.007915
0.008092
0.009734
0.010751
0.011000
0.010243
0.006770
0.006951
0.007047
0.007148
0.006804
0.006865
0.012100
0.011835
0.013167
0.012374
0.012636
0.013685
0.011288
0.006692
0.013742
0.014227
0.006828
0.006821
0.006695
0.013466
0.013793
0.009838
0.010317
0.007024
0.006761
0.008970
0.010046
0.010688
0.007502
0.007175
0.006959
0.006714
0.011175
0.010522
0.008514
0.007302
0.007000
0.008705
0.010491
0.009021
0.007645
0.011994
0.007305
0.007181
0.008275
0.010966
0.006883
0.009486
0.012478
0.007434
0.007031
0.008445
0.008116
0.009234
0.008718
0.012908
0.007088
0.006809
0.013402
0.006779
0.013438
0.013761
0.014015
0.006807
0.006733
0.006780
0.006835
0.006628
0.013466
0.014143
0.009317
0.013145
0.013780
0.006847
0.006648
0.013436
0.013156
0.007253
0.006815
0.006750
0.012335
0.012650
0.006770
0.006882
0.012952
0.013168
0.006966
0.007120
0.007543
0.007442
0.006906
0.006677
0.010504
0.010263
0.006851
0.006707
0.008975
0.008745
0.009431
0.009891
0.010092
0.010736
0.007747
0.007232
0.007221
0.006800
0.008500
0.007911
0.008726
0.008499
0.009124
0.008484
0.008934
0.008312
0.009680
0.010029
0.011497
0.011858
0.006946
0.006619
0.012146
0.012806
0.012129
0.012317
0.011107
0.011708
0.010519
0.010759
0.011625
0.012253
0.011305
0.011988
0.009878
0.010560
0.011842
0.012564
0.010269
0.010948
0.010511
0.011206
0.010771
0.011414
0.009677
0.010321
0.007773
0.007510
0.011279
0.011529
0.009316
0.009604
0.007619
0.007114
0.012665
0.012994
0.007012
0.006656
0.008717
0.008112
0.007225
0.007064
0.006954
0.006797
0.011872
0.012155
0.008505
0.008364
0.007321
0.006871
0.007448
0.007281
0.007950
0.007668
0.009985
0.010230
0.008346
0.007751
0.007121
0.006727
0.008160
0.007656
0.007835
0.007361
0.007029
0.006882
0.006883
0.006609
0.008258
0.012872
0.013611
0.013704
0.014439
0.013961
0.007131
0.007362
0.011545
0.010966
0.011298
0.006830
0.008930
0.010276
0.010738
0.010505
0.010732
0.010992
0.012517
0.013209
0.012925
0.006852
0.006586
0.006816
0.006719
0.009963
0.009540
0.008224
0.007903
0.007599
0.008731
0.009528
0.009747
0.007782
0.008065
0.012916
0.012410
0.008256
0.008091
0.009010
0.009195
0.009450
0.010097
0.007977
0.007482
0.009826
0.009213
0.009399
0.009171
0.008962
0.009647
0.006619
0.006826
0.008813
0.009477
0.006907
0.008192
0.007196
0.007728
0.007964
0.007361
0.009412
0.009144
0.009727
0.010508
0.006385
0.006405
0.006569
0.006788
0.006500
0.006442
0.011632
0.012215
0.012561
0.013219
0.008582
0.010914
0.006391
0.006435
0.006402
0.013487
0.013700
0.006482
0.013146
0.013293
0.007276
0.011012
0.006517
0.007262
0.006537
0.011180
0.009226
0.010753
0.006811
0.010909
0.006774
0.009785
0.009385
0.006970
0.009446
0.006621
0.006896
0.006614
0.009579
0.006406
0.006446
0.009009
0.009145
0.012208
0.012403
0.012548
0.012752
0.007633
0.007825
0.008436
0.009836
0.011822
0.011550
0.007557
0.007717
0.008320
0.010023
0.008515
0.008644
0.011993
0.011743
0.006398
0.012952
0.006375
0.006418
0.013371
0.013545
0.006387
0.013345
0.013615
0.006381
0.006485
0.012870
0.013090
0.006381
0.006473
0.007624
0.007677
0.012002
0.012098
0.008961
0.009009
0.008281
0.008345
0.012684
0.012798
0.006705
0.006716
0.007149
0.007124
0.011395
0.011482
0.006773
0.007150
0.007046
0.007306
0.007219
0.011262
0.011474
0.009934
0.010159
0.006428
0.012139
0.012408
0.009077
0.008892
0.011478
0.011744
0.010661
0.009401
0.009478
0.010661
0.006964
0.010918
0.006616
0.006609
0.006453
0.006495
0.006687
0.006700
0.006607
0.006612
0.006423
0.006439
0.008448
0.008514
0.009136
0.009338
0.007464
0.007338
0.009364
0.009573
0.011127
0.007410
0.009621
0.009893
0.009163
0.009240
0.010935
0.011026
0.008598
0.008429
0.011697
0.011791
0.012358
0.012462
0.006865
0.006832
0.008359
0.008206
0.009605
0.009713
0.008649
0.008823
0.011805
0.012068
0.010115
0.010369
0.008706
0.008804
0.008075
0.007940
0.007562
0.007852
0.007720
0.011149
0.006389
0.006408
0.006429
0.006383
0.012720
0.013006
0.006377
0.006398
0.006397
0.013588
0.013879
0.006540
0.013583
0.008379
0.010776
0.010678
0.011242
0.011124
0.007284
0.007270
0.011889
0.006635
0.007520
0.007452
0.006471
0.006478
0.007893
0.007827
0.006692
0.006692
0.010400
0.010410
0.006541
0.006541
0.012442
0.012718
0.013105
0.013378
0.008799
0.012903
0.013026
0.008083
0.008166
0.011342
0.011006
0.007041
0.010461
0.010585
0.009954
0.007110
0.010202
0.010173
0.007001
0.006409
0.006486
0.009894
0.007461
0.006481
0.006461
0.006860
0.006787
0.007384
0.010564
0.007599
0.008660
0.008419
0.007969
0.010794
0.009976
0.011085
0.009730
0.010247
0.011357
0.010549
0.006536
0.006980
0.006821
0.006597
0.013373
0.012702
0.013016
0.011877
0.009185
0.014042
0.006393
0.006408
0.014341
0.014210
0.006387
0.006391
0.014643
0.011892
0.011514
0.007773
0.008120
0.013322
0.009516
0.011627
0.012215
0.011236
0.009240
0.011829
0.006447
0.013750
0.008782
0.009692
0.010343
0.012514
0.013063
0.009973
0.009092
0.009326
0.012644
0.012150
0.006520
0.007256
0.010129
0.011112
0.012823
0.013505
0.006500
0.006719
0.007474
0.006624
0.010740
0.009778
0.012457
0.006598
0.006740
0.007078
0.007282
0.009389
0.008975
0.006793
0.014173
0.006400
0.006434
0.013875
0.013652
0.006474
0.006387
0.014531
0.013873
0.006428
0.009418
0.006475
0.013590
0.013729
0.006465
0.008441
0.008620
0.008971
0.009104
0.006680
0.012927
0.012728
0.009293
0.009099
0.008914
0.009815
0.009299
0.009491
0.009688
0.007223
0.007336
0.007477
0.007628
0.007557
0.007897
0.012442
0.011862
0.014504
0.006383
0.007352
0.007696
0.007077
0.013663
0.007197
0.007558
0.007167
0.006473
0.006424
0.013937
0.006427
0.013965
0.009592
0.009109
0.007077
0.007399
0.008520
0.008990
0.007237
0.006945
0.011088
0.011330
0.007992
0.008162
0.010066
0.009542
0.010853
0.010369
0.008214
0.008599
0.013518
0.012893
0.012150
0.011568
0.012609
0.012422
0.008707
0.008858
0.011027
0.010877
0.011146
0.010567
0.013256
0.006588
0.006629
0.008346
0.008821
0.011837
0.011254
0.011460
0.010907
0.009793
0.010331
0.012939
0.012329
0.010048
0.010549
0.009940
0.009759
0.010824
0.010619
0.008203
0.008390
0.013205
0.013024
0.006700
0.006740
0.006516
0.006815
0.011774
0.011615
0.006674
0.006850
0.006948
0.006962
0.007780
0.007953
0.006825
0.013621
0.006475
0.013360
0.006530
0.013838
0.013482
0.006444
0.006519
0.011594
0.014107
0.006392
0.006404
0.014764
0.008500
0.008831
0.014169
0.006403
0.009901
0.009543
0.008734
0.009231
0.007653
0.007772
0.011593
0.011401
0.011784
0.012007
0.010507
0.010252
0.006927
0.010193
0.009999
0.007115
0.008187
0.007486
0.012083
0.012710
0.007968
0.008344
0.014359
0.006383
0.012419
0.012109
0.012254
0.006711
0.007395
0.007082
0.007795
0.006840
0.007742
0.013197
0.013119
0.009177
0.008656
0.008243
0.008924
0.010491
0.011459
0.010199
0.011692
0.010736
0.011181
0.006820
0.007600
0.007417
0.007292
0.006886
0.007020
0.013127
0.012624
0.013461
0.013792
0.009605
0.012128
0.006577
0.014563
0.014469
0.006723
0.006508
0.014833
0.014703
0.006726
0.007060
0.006915
0.008014
0.012180
0.007960
0.012093
0.006593
0.010257
0.010744
0.011896
0.013942
0.006964
0.006794
0.011810
0.010689
0.010215
0.013865
0.007677
0.010495
0.006868
0.007582
0.006709
0.010447
0.010031
0.009995
0.011027
0.010965
0.008443
0.008631
0.009304
0.011382
0.013010
0.012722
0.008397
0.008612
0.009314
0.011312
0.009527
0.009508
0.012916
0.012619
0.014467
0.006645
0.006663
0.014112
0.006743
0.006782
0.006503
0.014633
0.014457
0.006561
0.006918
0.008536
0.008551
0.010017
0.010007
0.011023
0.011047
0.009291
0.009288
0.006841
0.012558
0.012504
0.007894
0.007858
0.013748
0.013596
0.006743
0.007843
0.007767
0.007974
0.007901
0.006655
0.012375
0.012260
0.012865
0.012822
0.011012
0.010916
0.006654
0.006801
0.006864
0.014249
0.014168
0.014039
0.013886
0.006744
0.012602
0.012454
0.007454
0.007504
0.009914
0.009971
0.011571
0.011619
0.012878
0.012730
0.010501
0.010477
0.011484
0.011588
0.007120
0.007031
0.007296
0.007154
0.007737
0.007688
0.013147
0.013002
0.007018
0.006815
0.007144
0.006967
0.007538
0.007433
0.007248
0.007173
0.009478
0.009471
0.010480
0.010402
0.010226
0.010158
0.008093
0.008063
0.012073
0.011948
0.010742
0.010655
0.010245
0.010225
0.012089
0.012038
0.010752
0.010726
0.011257
0.011149
0.009353
0.009380
0.011301
0.011269
0.006990
0.006908
0.009115
0.009127
0.009694
0.009656
0.009740
0.009725
0.008836
0.008830
0.013291
0.013217
0.008466
0.008553
0.008530
0.006679
0.006761
0.006833
0.010914
0.006656
0.014341
0.014179
0.006456
0.014844
0.014651
0.006781
0.006807
0.006910
0.012406
0.009384
0.011890
0.011863
0.007399
0.007321
0.007156
0.007550
0.007609
0.008783
0.008774
0.008140
0.008154
0.008355
0.008337
0.013303
0.013449
0.012293
0.012242
0.013552
0.013628
0.009823
0.007916
0.009062
0.009063
0.007423
0.007289
0.013078
0.013025
0.014793
0.014749
0.006580
0.007785
0.008048
0.008008
0.007593
0.007473
0.008239
0.008252
0.007744
0.007644
0.008293
0.008218
0.007203
0.007079
0.011388
0.012904
0.011645
0.011098
0.011930
0.010733
0.009268
0.008943
0.008719
0.009778
0.009525
0.010117
0.010428
0.008295
0.007871
0.008089
0.007674
0.007307
0.007473
0.006685
0.006377
0.006588
0.006403
0.006434
0.012821
0.006389
0.013130
0.006546
0.013263
0.012605
0.012864
0.006411
0.006387
0.012404
0.012673
0.008776
0.008571
0.010930
0.010675
0.008739
0.008954
0.009274
0.009486
0.006733
0.006791
0.006468
0.006476
0.006638
0.006589
0.006524
0.006551
0.008572
0.008368
0.006707
0.006646
0.008316
0.008121
0.011236
0.011552
0.011704
0.011454
0.011226
0.010967
0.010699
0.010441
0.009014
0.009233
0.010099
0.009831
0.009794
0.009562
0.007222
0.007102
0.008074
0.007898
0.007298
0.007433
0.007578
0.007712
0.007101
0.006985
0.006939
0.006844
0.006394
0.006463
0.006400
0.006381
0.006399
0.012877
0.013099
0.013040
0.012545
0.012271
0.006398
0.006390
0.012370
0.012757
0.008822
0.008936
0.011721
0.011607
0.008266
0.008158
0.008678
0.008407
0.007078
0.007225
0.008522
0.008259
0.006512
0.006549
0.006540
0.006539
0.008923
0.008647
0.008683
0.008557
0.006886
0.006922
0.011213
0.011064
0.007265
0.007197
0.007953
0.008040
0.006760
0.006760
0.010830
0.010964
0.007371
0.007438
0.007827
0.007727
0.006593
0.006662
0.008302
0.008054
0.009249
0.009364
0.009754
0.009914
0.009081
0.009218
0.009194
0.008922
0.011424
0.011059
0.007467
0.007292
0.006622
0.006666
0.006928
0.006830
0.006707
0.006775
0.010869
0.011231
0.007426
0.007617
0.008097
0.007860
0.010565
0.010265
0.009484
0.009179
0.010952
0.010595
0.010494
0.010627
0.007704
0.007930
0.007610
0.007538
0.011651
0.011253
0.011284
0.011405
0.010351
0.010046
0.010116
0.010009
0.009490
0.009609
0.009730
0.009420
0.007303
0.007147
0.007034
0.007094
0.012065
0.011894
0.006499
0.006470
0.012896
0.012570
0.012508
0.012362
0.006417
0.006451
0.012155
0.012417
0.006594
0.006616
0.006497
0.012668
0.012786
0.006378
0.006388
0.008500
0.006507
0.006424
0.013211
0.013427
0.013142
0.006419
0.006579
0.013458
0.013028
0.008164
0.008023
0.008362
0.008453
0.012114
0.012233
0.012405
0.012022
0.006823
0.006434
0.013670
0.013290
0.006455
0.006515
0.006486
0.013401
0.007131
0.006969
0.011725
0.012055
0.011504
0.011882
0.007087
0.006960
0.006484
0.006401
0.012727
0.013139
0.010022
0.009691
0.010572
0.010201
0.010309
0.009957
0.006430
0.006396
0.007700
0.007882
0.006413
0.006409
0.006418
0.013469
0.006523
0.007746
0.007559
0.006429
0.006421
0.006685
0.007452
0.007590
0.011726
0.011961
0.006379
0.006422
0.006437
0.006666
0.012178
0.011901
0.012176
0.011769
0.007793
0.007577
0.006400
0.013354
0.006477
0.010792
0.010408
0.006424
0.006438
0.006464
0.006698
0.010239
0.010426
0.006848
0.006750
0.010336
0.010250
0.010014
0.010239
0.006459
0.013427
0.006540
0.006439
0.013782
0.013455
0.011193
0.011415
0.006443
0.012070
0.012392
0.010787
0.009359
0.011626
0.009590
0.009804
0.011020
0.011307
0.010275
0.008753
0.007746
0.008922
0.007533
0.008305
0.008138
0.008504
0.007867
0.007231
0.007322
0.007155
0.006994
0.007060
0.007017
0.006762
0.014353
0.013345
0.006761
0.010746
0.011526
0.011758
0.011026
0.007769
0.008291
0.012671
0.012126
0.007173
0.006796
0.012540
0.011772
0.012051
0.011301
0.010126
0.009442
0.009621
0.009000
0.007919
0.008468
0.007100
0.007559
0.006947
0.007352
0.007103
0.006775
0.013286
0.012564
0.008056
0.008720
0.007237
0.006859
0.008179
0.007593
0.008743
0.009386
0.009810
0.010407
0.012241
0.011597
0.009850
0.009217
0.010925
0.010353
0.009074
0.008471
0.007466
0.008003
0.008794
0.008283
0.007848
0.007372
0.007681
0.007256
0.007001
0.007490
0.006938
0.007038
0.006920
0.012654
0.006705
0.007031
0.006864
0.006883
0.009887
0.009515
0.007043
0.010534
0.010796
0.012659
0.013055
0.012892
0.011939
0.007687
0.007451
0.007668
0.007957
0.009061
0.008788
0.007496
0.008272
0.008205
0.008547
0.008596
0.009475
0.008157
0.007391
0.008406
0.009292
0.007258
0.007968
0.010273
0.011197
0.007971
0.008815
0.007851
0.008680
0.012201
0.011221
0.012372
0.011422
0.012016
0.011042
0.007114
0.006929
0.010729
0.011062
0.010890
0.011422
0.010793
0.011757
0.007218
0.007005
0.007648
0.008444
0.010526
0.011514
0.007566
0.007386
0.007935
0.008221
0.007239
0.006715
0.008806
0.008521
0.010184
0.009750
0.010290
0.010563
0.007266
0.007486
0.009356
0.009050
0.009944
0.010912
0.010094
0.009174
0.009589
0.009280
0.008791
0.009632
0.007131
0.007394
0.007466
0.006844
0.006928
0.007578
0.008157
0.008992
0.007106
0.007861
0.010030
0.010288
0.013385
0.012393
0.006666
0.007157
0.007078
0.014351
0.007348
0.006780
0.007090
0.012343
0.012597
0.006842
0.006680
0.006662
0.006894
0.006978
0.006774
0.008007
0.012327
0.013064
0.013742
0.013580
0.014095
0.013415
0.012900
0.007063
0.006966
0.006793
0.013935
0.009088
0.007009
0.013542
0.014606
0.012423
0.012816
0.008091
0.007804
0.007637
0.006682
0.008099
0.008338
0.013195
0.012161
0.012726
0.013673
0.007426
0.012985
0.006751
0.007113
0.008664
0.008377
0.006633
0.007004
0.013047
0.013295
0.010046
0.010042
0.007195
0.007811
0.007273
0.010567
0.011272
0.007092
0.007817
0.007555
0.011834
0.012164
0.006726
0.012660
0.011641
0.007053
0.007721
0.012368
0.012101
0.011874
0.006973
0.007146
0.009185
0.008218
0.011637
0.011233
0.010545
0.013370
0.006909
0.007020
0.009617
0.010343
0.007029
0.012383
0.011867
0.009837
0.008949
0.007008
0.010661
0.010035
0.007021
0.011934
0.011572
0.013070
0.014042
0.007001
0.013152
0.013793
0.014168
0.011033
0.011290
0.009734
0.010585
0.010386
0.009427
0.006831
0.010146
0.010926
0.013506
0.013720
0.006971
0.013621
0.014007
0.013252
0.013615
0.006987
0.013394
0.006702
0.013854
0.006908
0.006839
0.012871
0.014497
0.013123
0.012570
0.010790
0.011978
0.011110
0.011394
0.011698
0.008287
0.009353
0.009538
0.008082
0.008961
0.009174
0.007714
0.007272
0.007028
0.007134
0.006646
0.006871
0.014809
0.014574
0.014286
0.014163
0.014045
0.013929
0.007066
0.007255
0.011255
0.011319
0.008738
0.008682
0.007530
0.007347
0.011715
0.011786
0.006780
0.007036
0.008986
0.008948
0.006957
0.007194
0.013497
0.013376
0.011987
0.012060
0.010143
0.010117
0.010471
0.010786
0.010434
0.010738
0.011043
0.011102
0.009382
0.009394
0.007952
0.008069
0.009169
0.009193
0.007738
0.007895
0.007582
0.007726
0.006794
0.006620
0.006789
0.014811
0.014334
0.014129
0.014425
0.014506
0.014553
0.014315
0.006584
0.006992
0.014825
0.014944
0.014116
0.013744
0.013430
0.007031
0.006899
0.007009
0.007149
0.007156
0.007259
0.007954
0.008011
0.013072
0.012897
0.007573
0.007604
0.009647
0.009645
0.010310
0.010318
0.010635
0.010619
0.007328
0.007556
0.008846
0.008875
0.007657
0.007449
0.009640
0.009630
0.010137
0.010089
0.010315
0.010256
0.010588
0.010515
0.008953
0.008914
0.008812
0.008759
0.007017
0.007290
0.012611
0.012489
0.010932
0.010956
0.007405
0.007304
0.007779
0.007842
0.008611
0.008538
0.008602
0.008615
0.009270
0.009282
0.010019
0.010016
0.008026
0.008157
0.008148
0.008195
0.012073
0.012104
0.010784
0.010871
0.008435
0.008341
0.011210
0.011240
0.008410
0.008376
0.011839
0.011877
0.012370
0.012323
0.007164
0.007417
0.009902
0.009874
0.011065
0.011168
0.007790
0.007600
0.009098
0.009123
0.011436
0.011520
0.011554
0.011514
0.006692
0.006895
0.013513
0.013571
0.014305
0.014251
0.006673
0.007054
0.013906
0.013964
0.014871
0.015047
0.006883
0.007120
0.006871
0.007184
0.006957
0.006685
0.013801
0.013689
0.006516
0.006958
0.006874
0.006752
0.006704
0.006808
0.013850
0.014027
0.009832
0.014659
0.014498
0.014977
0.014972
0.007457
0.014681
0.014739
0.014794
0.015043