# vtk DataFile Version 2.0
Unstructured Grid Example
ASCII
DATASET UNSTRUCTURED_GRID
POINTS 749 float
0.009651 -0.000932 -0.028048 
0.509029 -0.002390 0.026775 
0.202059 0.702317 -0.001040 
0.696532 0.700159 -0.002259 
0.101353 0.702913 -0.002354 
0.100558 1.002988 0.008405 
1.607745 1.010690 0.037565 
1.607402 0.710990 0.001105 
0.907571 0.500094 -0.016429 
0.997529 0.704445 -0.021011 
0.641385 0.497006 0.007605 
0.655066 0.547462 0.004989 
0.892947 0.550165 -0.015351 
1.047902 0.704912 -0.022770 
-0.009392 0.000771 0.152077 
0.491222 0.002501 0.206789 
0.197925 0.697777 0.178894 
0.703304 0.699801 0.177585 
0.098495 0.697321 0.177656 
0.099507 0.997246 0.188398 
1.592135 0.989612 0.217531 
1.592860 0.689261 0.181099 
0.921998 0.500190 0.163621 
1.002388 0.695405 0.158932 
0.644174 0.503086 0.187668 
0.659251 0.552469 0.184874 
0.906659 0.550131 0.164743 
1.052103 0.694727 0.156870 
1.596289 0.844749 0.154523 
1.603804 0.855528 0.064565 
1.600037 0.895178 0.115047 
1.600067 0.805128 0.103935 
0.299739 0.848961 0.140053 
0.300217 0.851126 0.049991 
0.300084 0.895039 0.096342 
0.299973 0.805082 0.093727 
0.134664 -0.000999 -0.014564 
0.259547 -0.001389 -0.000347 
0.384356 -0.001909 0.013664 
0.034451 0.086612 -0.026019 
0.059207 0.174193 -0.023797 
0.084105 0.261870 -0.021519 
0.108710 0.349642 -0.018897 
0.132498 0.437681 -0.015104 
0.155647 0.525830 -0.010637 
0.179171 0.614118 -0.005839 
0.151389 0.702899 -0.001582 
0.100886 0.852991 0.003153 
0.207599 1.002881 0.009001 
0.314299 1.002413 0.009081 
0.420502 1.001913 0.008211 
0.526727 1.001652 0.006177 
0.633079 1.001578 0.003107 
0.739888 1.002033 -0.000375 
0.847596 1.002846 -0.003451 
0.956184 1.003986 -0.004891 
1.065430 1.005430 -0.003519 
1.175139 1.007331 0.000990 
1.284122 1.008486 0.008344 
1.392658 1.009510 0.017609 
1.500445 1.010383 0.027695 
1.607671 0.860955 0.019576 
0.846224 0.703066 -0.013469 
0.622094 0.412662 0.014147 
0.600625 0.329520 0.020018 
0.578158 0.246527 0.023662 
0.555651 0.163815 0.025575 
0.532536 0.080793 0.026650 
0.772728 0.499316 -0.002979 
0.976908 0.602030 -0.022418 
0.944540 0.626760 -0.020000 
0.771720 0.549619 -0.003306 
0.676566 0.623067 0.000893 
1.143164 0.707739 -0.025098 
1.236948 0.709025 -0.023455 
1.330378 0.709898 -0.019697 
1.423278 0.710609 -0.013533 
1.515556 0.710882 -0.006383 
0.115666 0.000855 0.165428 
0.240639 0.001318 0.179510 
0.365992 0.001883 0.193641 
0.015734 0.088217 0.153931 
0.040860 0.175654 0.156188 
0.065993 0.262968 0.158452 
0.091257 0.350161 0.161062 
0.117127 0.437194 0.164775 
0.144118 0.524044 0.169208 
0.170672 0.610850 0.174197 
0.148458 0.697280 0.178331 
0.099097 0.847245 0.183162 
0.206794 0.997325 0.188995 
0.314339 0.997641 0.189109 
0.422475 0.998180 0.188138 
0.530483 0.998313 0.186280 
0.638416 0.998361 0.183162 
0.745873 0.997853 0.179623 
0.852443 0.996977 0.176562 
0.958104 0.995814 0.175114 
1.063145 0.994408 0.176478 
1.167715 0.992520 0.180952 
1.273081 0.991527 0.188275 
1.378770 0.990483 0.197800 
1.485136 0.989729 0.207753 
1.592466 0.839308 0.199538 
0.853747 0.696790 0.166558 
0.615800 0.420767 0.194156 
0.590045 0.337418 0.199865 
0.564512 0.253502 0.203787 
0.539652 0.169708 0.205526 
0.515336 0.085968 0.206668 
0.784728 0.500972 0.177137 
0.987885 0.598277 0.157722 
0.955263 0.623526 0.160162 
0.784975 0.550680 0.176732 
0.680532 0.626615 0.181170 
1.140377 0.692206 0.154971 
1.229891 0.690896 0.156439 
1.319800 0.690025 0.160377 
1.410258 0.689475 0.166367 
1.501323 0.689266 0.173665 
0.000029 -0.000094 0.062010 
0.500109 0.000068 0.116767 
0.199922 0.700046 0.088705 
0.700023 0.699859 0.087568 
0.099858 0.700160 0.087727 
0.100046 1.000108 0.098366 
1.599863 1.000180 0.127441 
1.600097 0.700117 0.091156 
0.914747 0.500089 0.073702 
1.000083 0.699989 0.068510 
0.642594 0.500040 0.098358 
0.656894 0.550056 0.095311 
0.899750 0.550078 0.074707 
1.050106 0.700044 0.066461 
1.597457 0.814519 0.137357 
1.602670 0.822098 0.073740 
1.602659 0.885712 0.081628 
1.597365 0.878213 0.145236 
0.300080 0.882618 0.064084 
0.300179 0.818923 0.062283 
0.299743 0.817512 0.125959 
0.299897 0.881079 0.127741 
1.503597 0.844791 0.146537 
1.411013 0.844900 0.138578 
1.318809 0.845313 0.131312 
1.226686 0.845830 0.125600 
1.134818 0.846446 0.121949 
1.042678 0.846988 0.121200 
0.950766 0.847664 0.122926 
0.858574 0.848327 0.125984 
0.765866 0.848940 0.130189 
0.672942 0.849381 0.134317 
0.579702 0.849502 0.137561 
0.486258 0.849429 0.139663 
0.392988 0.849278 0.140359 
1.507160 0.895062 0.106942 
1.414306 0.895018 0.098633 
1.321431 0.894959 0.091181 
1.228540 0.894935 0.084624 
1.135707 0.894938 0.080547 
1.042854 0.894898 0.079021 
0.950002 0.894895 0.079895 
0.857152 0.894928 0.082523 
0.764296 0.894945 0.086238 
0.671435 0.894987 0.090021 
0.578570 0.895002 0.093170 
0.485741 0.895024 0.095329 
0.392802 0.895003 0.096389 
1.510779 0.855323 0.056520 
1.417663 0.855128 0.048554 
1.324101 0.854622 0.041328 
1.230641 0.854170 0.035567 
1.136684 0.853417 0.031975 
1.043025 0.852783 0.031223 
0.949216 0.852147 0.032812 
0.855763 0.851555 0.035984 
0.762713 0.850914 0.040222 
0.669964 0.850591 0.044409 
0.577485 0.850391 0.047614 
0.485053 0.850555 0.049657 
0.392731 0.850810 0.050355 
1.507197 0.805075 0.096035 
1.414392 0.805029 0.088296 
1.321525 0.805027 0.081340 
1.228535 0.804863 0.076131 
1.135903 0.805064 0.073095 
1.042879 0.804931 0.073178 
0.950031 0.804910 0.075578 
0.857155 0.804922 0.079387 
0.764336 0.804980 0.084264 
0.671369 0.804978 0.088942 
0.578530 0.805009 0.092312 
0.485770 0.804984 0.094284 
0.392818 0.805020 0.094655 
1.596496 0.947269 0.162123 
1.596824 0.743465 0.137309 
1.603381 0.753143 0.056690 
1.603349 0.956051 0.082224 
1.605831 0.793014 0.031510 
1.594361 0.776231 0.171419 
1.606054 0.922879 0.046460 
1.594050 0.907382 0.187396 
1.604826 0.826031 0.048214 
1.595300 0.812266 0.163159 
1.604957 0.887343 0.054757 
1.595182 0.874282 0.170788 
1.597359 0.908998 0.148289 
1.597518 0.783787 0.133024 
1.602664 0.791266 0.070546 
1.602882 0.915650 0.083130 
1.600083 0.759307 0.098336 
1.600029 0.940114 0.119669 
0.344291 0.832247 0.122537 
1.553388 0.829554 0.131302 
0.718655 0.826995 0.109401 
0.811503 0.826939 0.104910 
0.904124 0.826334 0.100819 
0.625592 0.827286 0.113379 
1.181506 0.825548 0.099136 
0.439446 0.827226 0.117348 
0.996604 0.826050 0.097923 
0.532466 0.827278 0.116027 
1.089060 0.825780 0.097264 
1.274016 0.825306 0.103429 
1.366479 0.825054 0.109742 
1.459090 0.824910 0.117373 
0.333194 0.816983 0.106448 
1.565727 0.815791 0.114694 
0.344324 0.866665 0.123515 
1.553366 0.864111 0.135584 
0.811416 0.871804 0.106226 
0.718601 0.872063 0.110172 
0.904050 0.871500 0.102815 
0.625638 0.872195 0.113749 
0.996393 0.871185 0.100585 
0.532556 0.872140 0.116460 
0.439503 0.872182 0.118006 
1.181385 0.870626 0.103141 
1.088901 0.870836 0.100633 
1.273774 0.870215 0.107935 
1.366427 0.870105 0.114837 
1.459011 0.869978 0.122684 
0.333339 0.882639 0.108229 
1.565699 0.881594 0.122813 
0.299991 0.849995 0.095155 
0.299927 0.832074 0.101893 
0.300094 0.843062 0.076956 
0.299886 0.856551 0.113305 
0.300049 0.868212 0.088799 
1.557868 0.836134 0.075822 
0.344497 0.822709 0.077282 
0.717108 0.827688 0.064513 
0.809998 0.827948 0.059906 
0.903069 0.828493 0.055967 
0.624341 0.827736 0.068460 
1.089641 0.829166 0.051999 
0.531773 0.827687 0.071010 
0.996268 0.828732 0.052865 
1.183021 0.829458 0.054132 
0.439142 0.827852 0.072364 
1.276120 0.829694 0.058519 
1.369370 0.829964 0.064772 
1.462468 0.830189 0.072351 
1.567699 0.818675 0.090472 
0.333436 0.838641 0.061967 
0.344460 0.867888 0.067964 
1.557018 0.879925 0.091862 
0.717130 0.872863 0.065188 
0.810031 0.873061 0.061234 
0.903100 0.873314 0.057810 
0.624355 0.872786 0.068798 
1.182910 0.874276 0.058153 
0.996445 0.873613 0.055576 
1.089685 0.873989 0.055639 
0.531694 0.872829 0.071475 
0.439085 0.872906 0.073038 
1.276245 0.874623 0.063012 
1.369338 0.874858 0.069852 
1.462485 0.875096 0.077672 
0.333365 0.883159 0.083959 
1.569374 0.866128 0.075318 
0.421631 0.594738 0.003623 
0.352817 0.360377 0.003198 
0.381819 0.794613 0.004301 
0.527902 0.716489 0.003323 
0.539769 0.553951 0.006189 
1.035741 0.854022 -0.013447 
0.324248 0.682322 0.001945 
0.442491 0.470338 0.006567 
0.299660 0.494539 -0.001440 
0.256737 0.187568 -0.003205 
0.616653 0.836795 0.001041 
0.267058 0.776997 0.002575 
0.431691 0.699610 0.003555 
1.177685 0.854972 -0.011771 
0.411033 0.206264 0.011659 
1.373084 0.856496 -0.000574 
0.508566 0.839810 0.004066 
0.496194 0.635208 0.004241 
0.483211 0.338648 0.013172 
0.590874 0.633478 0.003356 
0.318128 0.588455 0.000105 
0.241942 0.360334 -0.006168 
0.765125 0.834338 -0.005294 
0.548881 0.454970 0.010206 
1.099837 0.802565 -0.017348 
0.716805 0.526118 0.001116 
0.901328 0.909571 -0.008281 
0.933794 0.783789 -0.014929 
0.828691 0.527798 -0.008801 
0.319090 0.889299 0.006015 
0.266235 0.640454 -0.001001 
0.466260 0.526628 0.005909 
0.377937 0.510467 0.003212 
0.398665 0.888148 0.006056 
0.595222 0.537705 0.006788 
1.019602 0.773968 -0.018285 
0.624893 0.747076 0.000311 
0.987071 0.652426 -0.021680 
0.183902 0.105797 -0.010325 
0.190413 0.800615 0.002277 
1.280901 0.800206 -0.012611 
1.473439 0.802998 0.001183 
0.187320 0.281444 -0.011237 
0.353193 0.113426 0.008096 
0.386432 0.648514 0.002710 
0.931274 0.572651 -0.018646 
0.218319 0.450331 -0.007350 
0.477086 0.758757 0.003940 
0.267028 0.710551 0.001004 
0.368356 0.438415 0.003371 
0.200153 0.898607 0.005670 
0.298292 0.290143 -0.000264 
1.103669 0.918421 -0.008622 
1.276290 0.900784 -0.002670 
0.265405 0.564579 -0.002736 
1.466419 0.914457 0.013709 
0.569877 0.909950 0.003548 
0.466500 0.144893 0.018478 
0.375455 0.721894 0.003183 
0.490865 0.244904 0.017319 
0.449088 0.064603 0.019080 
0.296817 0.413333 -0.001558 
0.688666 0.905433 -0.000634 
0.617978 0.585441 0.004280 
0.591549 0.482755 0.009321 
0.544575 0.378662 0.014395 
0.553698 0.780737 0.002772 
0.482271 0.577126 0.005100 
0.692895 0.792823 -0.002442 
0.426256 0.386777 0.007977 
[...]
POINT_DATA 749
SCALARS u float 1
LOOKUP_TABLE default
0.078536
0.075043
0.008652
0.010960
0.010539
0.023651
0.105371
0.035188
0.047716
0.057208
0.021978
0.015800
0.044710
0.061893
0.077990
0.074895
0.008563
0.010842
0.010228
0.023425
0.105136
0.034252
0.047138
0.057413
0.022149
0.015497
0.044056
0.063027
0.054395
0.054736
0.066286
0.036878
0.013669
0.013552
0.016784
0.009865
0.046330
0.025548
0.044114
0.073296
0.067559
0.061857
0.055074
0.044627
0.031946
0.019466
0.009481
0.011739
0.025038
0.024866
0.022444
0.017612
0.011563
0.009575
0.013440
0.016889
0.017387
0.021901
0.034750
0.056059
0.080807
0.062740
0.037899
0.039735
0.055780
0.065748
0.071342
0.074515
0.018295
0.061380
0.055061
0.020157
0.007742
0.069618
0.067192
0.060049
0.048754
0.038471
0.045852
0.025050
0.043547
0.073242
0.067522
0.061818
0.055203
0.045366
0.032624
0.019649
0.009380
0.011353
0.024851
0.024901
0.022242
0.017938
0.011830
0.009848
0.013734
0.017216
0.017749
0.022243
0.034546
0.056488
0.080935
0.062221
0.037893
0.039938
0.055401
0.066209
0.071222
0.074378
0.017309
0.060826
0.054454
0.019110
0.007402
0.069458
0.067462
0.059857
0.048631
0.037842
0.074072
0.070836
0.003435
0.006446
0.006043
0.022142
0.099086
0.003086
0.043135
0.056870
0.022131
0.014072
0.040477
0.062294
0.042776
0.043047
0.063293
0.063085
0.015766
0.011045
0.011116
0.015795
0.034789
0.018624
0.017238
0.027668
0.035875
0.037381
0.032607
0.024561
0.013692
0.004688
0.007525
0.012516
0.014314
0.044835
0.022846
0.003127
0.014230
0.025017
0.029057
0.026743
0.019787
0.009956
0.000067
0.008390
0.014103
0.016910
0.034935
0.018775
0.017150
0.027839
0.035727
0.037198
0.032817
0.024487
0.013530
0.004463
0.007563
0.012534
0.014336
0.015972
0.004518
0.022920
0.036706
0.044741
0.044518
0.038166
0.028086
0.015181
0.002806
0.006119
0.011338
0.012320
0.085534
0.023855
0.024414
0.085438
0.040860
0.040234
0.077416
0.077317
0.047255
0.046850
0.065635
0.065422
0.072668
0.033217
0.033628
0.072732
0.022063
0.080487
0.012743
0.037299
0.008574
0.020248
0.031101
0.002861
0.035781
0.012858
0.038770
0.009390
0.040581
0.024834
0.010414
0.015223
0.011454
0.033541
0.015338
0.048277
0.016808
0.006569
0.025798
0.003797
0.031723
0.010580
0.014606
0.025338
0.031728
0.013893
0.009631
0.028128
0.016166
0.054912
0.013245
0.011945
0.012770
0.013838
0.014639
0.037511
0.012056
0.008165
0.020220
0.030663
0.003144
0.041269
0.009354
0.038869
0.035830
0.012911
0.024644
0.010519
0.015395
0.033702
0.012975
0.015214
0.051048
0.006484
0.016746
0.025763
0.003909
0.025260
0.031693
0.031652
0.010623
0.014703
0.013544
0.009646
0.028174
0.016118
0.049820
0.011112
0.019977
0.011988
0.009338
0.017434
0.038282
0.007628
0.020596
0.013989
0.025762
0.008209
0.009495
0.009614
0.038007
0.037961
0.030978
0.011664
0.011539
0.038798
0.010685
0.009098
0.026773
0.017639
0.029244
0.048822
0.013500
0.024394
0.041563
0.029830
0.016935
0.009740
0.017442
0.013660
0.016746
0.019470
0.050361
0.007284
0.058968
0.036873
0.009927
0.042738
0.033910
0.038030
0.032364
0.008505
0.052303
0.026022
0.010631
0.007655
0.016780
0.016847
0.022319
0.028993
0.027836
0.013509
0.049536
0.011655
0.053982
0.009076
0.050142
0.056180
0.017538
0.009105
0.013463
0.026367
0.040931
0.008946
0.014380
0.011856
0.026382
0.047081
0.030584
0.010045
0.008393
0.007083
0.024769
0.027193
0.007861
0.055351
0.039579
0.016467
0.013885
0.021714
0.073727
0.029121
0.009066
0.010120
0.035169
0.009511
0.015664
0.014391
0.021748
0.010448
0.048312
0.029484
0.037066
0.026505
0.022570
0.012725
0.051150
0.060649
0.007743
0.036080
0.014230
0.024530
0.012837
0.014061
0.013892
0.035298
0.020614
0.038983
0.007845
0.020250
0.010830
0.019855
0.058946
0.039009
0.022122
0.055078
0.007872
0.010837
0.019562
0.009453
0.011470
0.020537
0.011902
0.008975
0.017590
0.038661
0.007714
0.021300
0.014282
0.025934
0.008058
0.009527
0.009375
0.038184
0.038779
0.031013
0.011613
0.011357
0.038576
0.010732
0.009392
0.026788
0.017781
0.029962
0.049061
0.012827
0.024587
0.041647
0.029007
0.016979
0.009793
0.017648
0.013813
0.016537
0.019464
0.050102
0.007547
0.058745
0.036847
0.009699
0.043027
0.033488
0.037714
0.032182
0.008775
0.051767
0.026948
0.010516
0.007480
0.016977
0.016644
0.022677
0.029258
0.028055
0.013569
0.049534
0.011615
0.054292
0.009309
0.050387
0.055903
0.017783
0.009309
0.013169
0.026750
0.040663
0.008639
0.014722
0.012059
0.026149
0.047263
0.031284
0.010260
0.008027
0.007266
0.024372
0.027348
0.007975
0.055826
0.039446
0.016661
0.013879
0.022392
0.073640
0.029092
0.008591
0.009735
0.035467
0.009958
0.015770
0.014986
0.021507
0.010228
0.048377
0.029537
0.036287
0.026413
0.022866
0.012755
0.050608
0.060339
0.008038
0.035352
0.013937
0.024892
0.012955
0.014055
0.014380
0.035382
0.020497
0.039319
0.008085
0.020190
0.010739
0.020088
0.059338
0.039534
0.022106
0.055021
0.007767
0.011188
0.019375
0.009512
0.060011
0.070000
0.044377
0.065940
0.071074
0.033046
0.032628
0.071248
0.003120
0.024733
0.025295
0.063328
0.053281
0.053791
0.052206
0.057003
0.057210
0.021786
0.021707
0.047409
0.047459
0.035680
0.002853
0.003453
0.007037
0.016813
0.005859
0.006667
0.066378
0.044803
0.025120
0.058990
0.067136
0.014148
0.016137
0.066579
0.024357
0.023534
0.019976
0.013083
0.003725
0.005695
0.012360
0.013058
0.005348
0.010923
0.033452
0.058936
0.081585
0.023478
0.023310
0.089411
0.018945
0.016284
0.049314
0.051305
0.065763
0.053787
0.021116
0.046447
0.060074
0.033733
0.011315
0.071050
0.071763
0.010859
0.006017
0.006957
0.005932
0.007122
0.015839
0.015692
0.003266
0.002863
0.008354
0.056671
0.006972
0.006604
0.010667
0.002583
0.014019
0.007466
0.007251
0.012922
0.011120
0.009785
0.009822
0.009401
0.009978
0.009596
0.018188
0.017802
0.004424
0.006804
0.004002
0.004248
0.011991
0.017536
0.017708
0.007250
0.009888
0.013098
0.049280
0.006196
0.005721
0.009437
0.009638
0.009556
0.004470
0.003917
0.010575
0.010660
0.022035
0.016060
0.040341
0.017929
0.009266
0.007731
0.013714
0.005595
0.007704
0.003401
0.002720
0.015049
0.009428
0.006889
0.007879
0.007431
0.011992
0.017113
0.024435
0.023843
0.017897
0.020307
0.005476
0.013123
0.003592
0.013079
0.008033
0.007344
0.005107
0.036160
0.010579
0.009750
0.057367
0.031724
0.031824
0.055247
0.012086
0.040202
0.016118
0.013725
0.007462
0.014098
0.003258
0.002385
0.046202
0.051070
0.032353
0.051449
0.013521
0.016901
0.006675
0.015037
0.023242
0.054933
0.040269
0.029137
0.013545
0.012548
0.012325
0.003944
0.011712
0.015954
0.027789
0.029538
0.005250
0.048512
0.029730
0.016567
0.019589
0.019698
0.039662
0.008295
0.006980
0.007966
0.048516
0.014197
0.013832
0.010989
0.011015
0.013821
0.016590
0.019371
0.019594
0.011483
0.010735
0.009910
0.008976
0.007520
0.012287
0.010155
0.009208
0.008297
0.012312
0.006178
0.010159
0.013033
0.007239
0.010966
0.010051
0.005658
0.009237
0.008242
0.011683
0.014369
0.004885
0.003467
0.007786
0.006942
0.019611
0.029590
