# vtk DataFile Version 2.0
Unstructured Grid Example
ASCII
DATASET UNSTRUCTURED_GRID
POINTS 749 float
0.002417 -0.000233 -0.007024 
0.502261 -0.000598 0.006705 
0.200516 0.700580 -0.000260 
0.699132 0.700040 -0.000566 
0.100339 0.700730 -0.000589 
0.100140 1.000748 0.002105 
1.601939 1.002677 0.009407 
1.601854 0.702752 0.000277 
0.913140 0.500024 -0.004114 
0.999381 0.701113 -0.005261 
0.642489 0.499250 0.001904 
0.656623 0.549365 0.001249 
0.898234 0.550041 -0.003844 
1.049475 0.701230 -0.005702 
-0.002352 0.000193 0.173008 
0.497802 0.000626 0.186708 
0.199480 0.699443 0.179723 
0.700827 0.699950 0.179395 
0.099623 0.699329 0.179413 
0.099876 0.999310 0.182103 
1.598030 0.997399 0.189398 
1.598212 0.697311 0.180275 
0.916752 0.500048 0.175898 
1.000598 0.698849 0.174724 
0.643187 0.500773 0.181920 
0.657671 0.550618 0.181220 
0.901668 0.550033 0.176179 
1.050527 0.698680 0.174208 
1.599071 0.848685 0.139889 
1.600953 0.851384 0.049899 
1.600009 0.895045 0.096272 
1.600017 0.805032 0.093489 
0.299935 0.849740 0.136265 
0.300054 0.850282 0.046250 
0.300021 0.895010 0.091588 
0.299993 0.805020 0.090933 
0.127420 -0.000250 -0.003647 
0.252391 -0.000348 -0.000087 
0.377343 -0.000478 0.003422 
0.027367 0.087278 -0.006516 
0.052306 0.174798 -0.005959 
0.077280 0.262342 -0.005389 
0.102181 0.349910 -0.004732 
0.126878 0.437545 -0.003782 
0.151414 0.525208 -0.002664 
0.176044 0.612905 -0.001462 
0.150348 0.700726 -0.000396 
0.100222 0.850749 0.000790 
0.207257 1.000721 0.002254 
0.314289 1.000604 0.002274 
0.421197 1.000479 0.002056 
0.528109 1.000414 0.001547 
0.635054 1.000395 0.000778 
0.742114 1.000509 -0.000094 
0.849398 1.000713 -0.000864 
0.956903 1.000998 -0.001225 
1.064572 1.001360 -0.000881 
1.172358 1.001836 0.000248 
1.279961 1.002125 0.002089 
1.387453 1.002381 0.004410 
1.494757 1.002600 0.006935 
1.601921 0.852743 0.004902 
0.849054 0.700768 -0.003373 
0.619810 0.415664 0.003543 
0.596587 0.332379 0.005013 
0.573114 0.249130 0.005925 
0.549630 0.165952 0.006404 
0.525995 0.082697 0.006674 
0.777376 0.499829 -0.000746 
0.981100 0.600508 -0.005614 
0.948633 0.625441 -0.005008 
0.776856 0.549905 -0.000828 
0.678069 0.624516 0.000224 
1.142042 0.701938 -0.006285 
1.234238 0.702260 -0.005874 
1.326347 0.702479 -0.004933 
1.418322 0.702657 -0.003389 
1.510142 0.702725 -0.001598 
0.122663 0.000214 0.176351 
0.247656 0.000330 0.179877 
0.372744 0.000472 0.183416 
0.022680 0.087680 0.173472 
0.047711 0.175164 0.174037 
0.072744 0.262617 0.174604 
0.097811 0.350040 0.175258 
0.123028 0.437423 0.176187 
0.148527 0.524760 0.177298 
0.173916 0.612087 0.178547 
0.149614 0.699319 0.179582 
0.099774 0.849310 0.180792 
0.207056 0.999330 0.182252 
0.314299 0.999409 0.182281 
0.421691 0.999544 0.182038 
0.529050 0.999577 0.181573 
0.636391 0.999589 0.180792 
0.743612 0.999462 0.179906 
0.850612 0.999243 0.179139 
0.957384 0.998952 0.178776 
1.064000 0.998600 0.179118 
1.170499 0.998127 0.180238 
1.277197 0.997878 0.182072 
1.383975 0.997617 0.184457 
1.490924 0.997428 0.186950 
1.598113 0.847323 0.184893 
0.850938 0.699196 0.176634 
0.618234 0.417693 0.183545 
0.593938 0.334356 0.184974 
0.569696 0.250877 0.185957 
0.545624 0.167428 0.186392 
0.521688 0.083993 0.186678 
0.780381 0.500243 0.179283 
0.983849 0.599568 0.174421 
0.951318 0.624631 0.175032 
0.780175 0.550170 0.179182 
0.679063 0.625404 0.180293 
1.141344 0.698048 0.173732 
1.232471 0.697720 0.174100 
1.323698 0.697502 0.175086 
1.415062 0.697364 0.176586 
1.506578 0.697312 0.178414 
0.000007 -0.000024 0.082991 
0.500027 0.000017 0.096703 
0.199980 0.700012 0.089676 
0.700006 0.699965 0.089391 
0.099964 0.700040 0.089431 
0.100011 1.000027 0.092095 
1.599966 1.000045 0.099376 
1.600024 0.700029 0.090290 
0.914937 0.500022 0.085919 
1.000021 0.699997 0.084619 
0.642791 0.500010 0.092093 
0.657080 0.550014 0.091330 
0.899937 0.550020 0.086170 
1.050027 0.700011 0.084105 
1.599363 0.817263 0.125711 
1.600669 0.819161 0.062077 
1.600666 0.882794 0.064052 
1.599340 0.880917 0.127683 
0.300020 0.882020 0.059658 
0.300045 0.818366 0.059208 
0.299936 0.818013 0.122856 
0.299974 0.881634 0.123303 
1.506255 0.848695 0.137889 
1.413466 0.848723 0.135896 
1.320773 0.848826 0.134076 
1.228099 0.848956 0.132646 
1.135490 0.849110 0.131732 
1.042812 0.849246 0.131544 
0.950192 0.849415 0.131977 
0.857501 0.849581 0.132742 
0.764682 0.849735 0.133795 
0.671807 0.849845 0.134829 
0.578855 0.849875 0.135641 
0.485851 0.849857 0.136168 
0.392890 0.849819 0.136342 
1.507147 0.895016 0.094243 
1.414291 0.895004 0.092162 
1.321429 0.894990 0.090296 
1.228564 0.894984 0.088654 
1.135712 0.894984 0.087633 
1.042856 0.894974 0.087251 
0.950000 0.894974 0.087470 
0.857145 0.894982 0.088128 
0.764288 0.894986 0.089058 
0.671430 0.894997 0.090005 
0.578571 0.895001 0.090794 
0.485721 0.895006 0.091334 
0.392843 0.895001 0.091600 
1.508053 0.851333 0.047885 
1.415131 0.851284 0.045890 
1.322098 0.851157 0.044080 
1.229090 0.851044 0.042638 
1.135957 0.850856 0.041738 
1.042899 0.850697 0.041550 
0.949804 0.850538 0.041948 
0.856797 0.850389 0.042742 
0.763892 0.850229 0.043803 
0.671062 0.850148 0.044852 
0.578299 0.850098 0.045655 
0.485549 0.850139 0.046166 
0.392826 0.850203 0.046341 
1.507156 0.805019 0.091511 
1.414312 0.805007 0.089573 
1.321453 0.805007 0.087831 
1.228562 0.804966 0.086527 
1.135761 0.805016 0.085767 
1.042863 0.804983 0.085788 
0.950008 0.804978 0.086389 
0.857146 0.804980 0.087342 
0.764298 0.804995 0.088564 
0.671414 0.804994 0.089735 
0.578561 0.805002 0.090579 
0.485728 0.804996 0.091073 
0.392847 0.805005 0.091166 
1.599122 0.950678 0.138281 
1.599205 0.747002 0.132067 
1.600847 0.749425 0.051438 
1.600839 0.952460 0.058424 
1.601460 0.786627 0.022905 
1.598588 0.782425 0.162837 
1.601516 0.916490 0.025980 
1.598510 0.913472 0.166837 
1.601208 0.820776 0.036447 
1.598823 0.817329 0.151409 
1.601241 0.882027 0.037334 
1.598793 0.879302 0.153320 
1.599339 0.911616 0.127969 
1.599378 0.786498 0.124209 
1.600667 0.788371 0.061694 
1.600722 0.912540 0.062880 
1.600021 0.759222 0.092087 
1.600007 0.939914 0.096872 
0.344390 0.832624 0.118949 
1.555028 0.831950 0.121144 
0.718057 0.827374 0.111724 
0.810912 0.827360 0.110599 
0.903710 0.827208 0.109575 
0.625148 0.827446 0.112720 
1.181983 0.827011 0.109153 
0.439326 0.827431 0.113714 
0.996473 0.827137 0.108850 
0.532224 0.827444 0.113383 
1.089229 0.827069 0.108685 
1.274754 0.826951 0.110229 
1.367512 0.826888 0.111809 
1.460308 0.826851 0.113720 
0.333307 0.817089 0.103208 
1.566423 0.816791 0.105273 
0.344399 0.867104 0.119194 
1.555023 0.866464 0.122216 
0.810890 0.872326 0.110929 
0.718043 0.872391 0.111917 
0.903691 0.872250 0.110075 
0.625160 0.872424 0.112813 
0.996420 0.872171 0.109516 
0.532246 0.872410 0.113492 
0.439340 0.872420 0.113879 
1.181953 0.872031 0.110156 
1.089189 0.872083 0.109528 
1.274693 0.871928 0.111357 
1.367499 0.871900 0.113085 
1.460288 0.871868 0.115050 
0.333343 0.882816 0.103654 
1.566416 0.882554 0.107306 
0.299998 0.849970 0.091403 
0.299982 0.832169 0.098512 
0.300024 0.842721 0.073356 
0.299971 0.856860 0.109398 
0.300012 0.868053 0.084655 
1.556150 0.833597 0.065649 
0.344442 0.822365 0.073885 
0.717669 0.827547 0.066752 
0.810535 0.827612 0.065598 
0.903446 0.827749 0.064612 
0.624835 0.827559 0.067740 
1.089375 0.827917 0.063618 
0.532050 0.827547 0.068379 
0.996388 0.827808 0.063835 
1.182363 0.827990 0.064152 
0.439250 0.827588 0.068718 
1.275281 0.828049 0.065251 
1.368236 0.828117 0.066817 
1.461153 0.828173 0.068715 
1.566917 0.817513 0.081030 
0.333367 0.838067 0.058337 
0.344433 0.867410 0.063681 
1.555937 0.878295 0.077536 
0.717675 0.872591 0.066921 
0.810543 0.872640 0.065931 
0.903453 0.872704 0.065074 
0.624839 0.872572 0.067825 
1.182335 0.872945 0.065159 
0.996433 0.872779 0.064514 
1.089386 0.872873 0.064530 
0.532030 0.872582 0.068495 
0.439235 0.872602 0.068887 
1.275312 0.873032 0.066376 
1.368228 0.873091 0.068089 
1.461158 0.873150 0.070047 
0.333350 0.882946 0.079398 
1.567337 0.863127 0.061681 
0.420093 0.595149 0.000907 
0.347825 0.361542 0.000801 
0.381615 0.793567 0.001077 
0.528736 0.716798 0.000832 
0.539628 0.555636 0.001550 
1.036004 0.850033 -0.003367 
0.322993 0.681338 0.000487 
0.439723 0.471800 0.001644 
0.295848 0.494467 -0.000361 
0.249921 0.188579 -0.000803 
0.618735 0.836113 0.000261 
0.266216 0.775324 0.000645 
0.431233 0.699286 0.000890 
1.175487 0.849208 -0.002948 
0.404984 0.207889 0.002920 
1.368273 0.849170 -0.000144 
0.509650 0.839139 0.001018 
0.495968 0.635933 0.001062 
0.479048 0.341087 0.003299 
0.591947 0.634775 0.000840 
0.315581 0.588071 0.000026 
0.235943 0.360720 -0.001545 
0.767812 0.832926 -0.001326 
0.547342 0.457749 0.002556 
1.099554 0.797869 -0.004344 
0.720356 0.527263 0.000280 
0.902720 0.906874 -0.002074 
0.935787 0.780724 -0.003738 
0.833970 0.527839 -0.002204 
0.319061 0.887662 0.001506 
0.263894 0.639201 -0.000251 
0.464605 0.528059 0.001480 
0.374954 0.510991 0.000804 
0.399032 0.886822 0.001516 
0.595767 0.539761 0.001700 
1.020733 0.770181 -0.004579 
0.626939 0.747196 0.000078 
0.990113 0.650056 -0.005429 
0.176922 0.106481 -0.002586 
0.189575 0.798543 0.000570 
1.277571 0.793417 -0.003158 
1.468139 0.795037 0.000296 
0.180634 0.282061 -0.002814 
0.346438 0.114681 0.002027 
0.385148 0.648341 0.000679 
0.936142 0.571987 -0.004669 
0.213435 0.449979 -0.001840 
0.477567 0.758419 0.000987 
0.265673 0.709035 0.000251 
0.364450 0.439389 0.000844 
0.199717 0.896482 0.001420 
0.292045 0.291098 -0.000066 
1.102094 0.913606 -0.002159 
1.272346 0.894257 -0.000669 
0.262284 0.563748 -0.000685 
1.460822 0.906714 0.003433 
0.571580 0.908989 0.000889 
0.460350 0.146930 0.004627 
0.374752 0.721244 0.000797 
0.485576 0.247186 0.004337 
0.442328 0.066329 0.004778 
0.292000 0.413663 -0.000390 
0.690904 0.904241 -0.000159 
0.619144 0.587140 0.001072 
0.591237 0.485374 0.002334 
0.541521 0.381603 0.003605 
0.555136 0.780546 0.000694 
0.481436 0.578256 0.001277 
0.695597 0.792031 -0.000612 
0.422091 0.388434 0.001997 
[...]
POINT_DATA 749
SCALARS u float 1
LOOKUP_TABLE default
0.078536
0.075043
0.008652
0.010960
0.010539
0.023651
0.105371
0.035188
0.047716
0.057208
0.021978
0.015800
0.044710
0.061893
0.077990
0.074895
0.008563
0.010842
0.010228
0.023425
0.105136
0.034252
0.047138
0.057413
0.022149
0.015497
0.044056
0.063027
0.054395
0.054736
0.066286
0.036878
0.013669
0.013552
0.016784
0.009865
0.046330
0.025548
0.044114
0.073296
0.067559
0.061857
0.055074
0.044627
0.031946
0.019466
0.009481
0.011739
0.025038
0.024866
0.022444
0.017612
0.011563
0.009575
0.013440
0.016889
0.017387
0.021901
0.034750
0.056059
0.080807
0.062740
0.037899
0.039735
0.055780
0.065748
0.071342
0.074515
0.018295
0.061380
0.055061
0.020157
0.007742
0.069618
0.067192
0.060049
0.048754
0.038471
0.045852
0.025050
0.043547
0.073242
0.067522
0.061818
0.055203
0.045366
0.032624
0.019649
0.009380
0.011353
0.024851
0.024901
0.022242
0.017938
0.011830
0.009848
0.013734
0.017216
0.017749
0.022243
0.034546
0.056488
0.080935
0.062221
0.037893
0.039938
0.055401
0.066209
0.071222
0.074378
0.017309
0.060826
0.054454
0.019110
0.007402
0.069458
0.067462
0.059857
0.048631
0.037842
0.074072
0.070836
0.003435
0.006446
0.006043
0.022142
0.099086
0.003086
0.043135
0.056870
0.022131
0.014072
0.040477
0.062294
0.042776
0.043047
0.063293
0.063085
0.015766
0.011045
0.011116
0.015795
0.034789
0.018624
0.017238
0.027668
0.035875
0.037381
0.032607
0.024561
0.013692
0.004688
0.007525
0.012516
0.014314
0.044835
0.022846
0.003127
0.014230
0.025017
0.029057
0.026743
0.019787
0.009956
0.000067
0.008390
0.014103
0.016910
0.034935
0.018775
0.017150
0.027839
0.035727
0.037198
0.032817
0.024487
0.013530
0.004463
0.007563
0.012534
0.014336
0.015972
0.004518
0.022920
0.036706
0.044741
0.044518
0.038166
0.028086
0.015181
0.002806
0.006119
0.011338
0.012320
0.085534
0.023855
0.024414
0.085438
0.040860
0.040234
0.077416
0.077317
0.047255
0.046850
0.065635
0.065422
0.072668
0.033217
0.033628
0.072732
0.022063
0.080487
0.012743
0.037299
0.008574
0.020248
0.031101
0.002861
0.035781
0.012858
0.038770
0.009390
0.040581
0.024834
0.010414
0.015223
0.011454
0.033541
0.015338
0.048277
0.016808
0.006569
0.025798
0.003797
0.031723
0.010580
0.014606
0.025338
0.031728
0.013893
0.009631
0.028128
0.016166
0.054912
0.013245
0.011945
0.012770
0.013838
0.014639
0.037511
0.012056
0.008165
0.020220
0.030663
0.003144
0.041269
0.009354
0.038869
0.035830
0.012911
0.024644
0.010519
0.015395
0.033702
0.012975
0.015214
0.051048
0.006484
0.016746
0.025763
0.003909
0.025260
0.031693
0.031652
0.010623
0.014703
0.013544
0.009646
0.028174
0.016118
0.049820
0.011112
0.019977
0.011988
0.009338
0.017434
0.038282
0.007628
0.020596
0.013989
0.025762
0.008209
0.009495
0.009614
0.038007
0.037961
0.030978
0.011664
0.011539
0.038798
0.010685
0.009098
0.026773
0.017639
0.029244
0.048822
0.013500
0.024394
0.041563
0.029830
0.016935
0.009740
0.017442
0.013660
0.016746
0.019470
0.050361
0.007284
0.058968
0.036873
0.009927
0.042738
0.033910
0.038030
0.032364
0.008505
0.052303
0.026022
0.010631
0.007655
0.016780
0.016847
0.022319
0.028993
0.027836
0.013509
0.049536
0.011655
0.053982
0.009076
0.050142
0.056180
0.017538
0.009105
0.013463
0.026367
0.040931
0.008946
0.014380
0.011856
0.026382
0.047081
0.030584
0.010045
0.008393
0.007083
0.024769
0.027193
0.007861
0.055351
0.039579
0.016467
0.013885
0.021714
0.073727
0.029121
0.009066
0.010120
0.035169
0.009511
0.015664
0.014391
0.021748
0.010448
0.048312
0.029484
0.037066
0.026505
0.022570
0.012725
0.051150
0.060649
0.007743
0.036080
0.014230
0.024530
0.012837
0.014061
0.013892
0.035298
0.020614
0.038983
0.007845
0.020250
0.010830
0.019855
0.058946
0.039009
0.022122
0.055078
0.007872
0.010837
0.019562
0.009453
0.011470
0.020537
0.011902
0.008975
0.017590
0.038661
0.007714
0.021300
0.014282
0.025934
0.008058
0.009527
0.009375
0.038184
0.038779
0.031013
0.011613
0.011357
0.038576
0.010732
0.009392
0.026788
0.017781
0.029962
0.049061
0.012827
0.024587
0.041647
0.029007
0.016979
0.009793
0.017648
0.013813
0.016537
0.019464
0.050102
0.007547
0.058745
0.036847
0.009699
0.043027
0.033488
0.037714
0.032182
0.008775
0.051767
0.026948
0.010516
0.007480
0.016977
0.016644
0.022677
0.029258
0.028055
0.013569
0.049534
0.011615
0.054292
0.009309
0.050387
0.055903
0.017783
0.009309
0.013169
0.026750
0.040663
0.008639
0.014722
0.012059
0.026149
0.047263
0.031284
0.010260
0.008027
0.007266
0.024372
0.027348
0.007975
0.055826
0.039446
0.016661
0.013879
0.022392
0.073640
0.029092
0.008591
0.009735
0.035467
0.009958
0.015770
0.014986
0.021507
0.010228
0.048377
0.029537
0.036287
0.026413
0.022866
0.012755
0.050608
0.060339
0.008038
0.035352
0.013937
0.024892
0.012955
0.014055
0.014380
0.035382
0.020497
0.039319
0.008085
0.020190
0.010739
0.020088
0.059338
0.039534
0.022106
0.055021
0.007767
0.011188
0.019375
0.009512
0.060011
0.070000
0.044377
0.065940
0.071074
0.033046
0.032628
0.071248
0.003120
0.024733
0.025295
0.063328
0.053281
0.053791
0.052206
0.057003
0.057210
0.021786
0.021707
0.047409
0.047459
0.035680
0.002853
0.003453
0.007037
0.016813
0.005859
0.006667
0.066378
0.044803
0.025120
0.058990
0.067136
0.014148
0.016137
0.066579
0.024357
0.023534
0.019976
0.013083
0.003725
0.005695
0.012360
0.013058
0.005348
0.010923
0.033452
0.058936
0.081585
0.023478
0.023310
0.089411
0.018945
0.016284
0.049314
0.051305
0.065763
0.053787
0.021116
0.046447
0.060074
0.033733
0.011315
0.071050
0.071763
0.010859
0.006017
0.006957
0.005932
0.007122
0.015839
0.015692
0.003266
0.002863
0.008354
0.056671
0.006972
0.006604
0.010667
0.002583
0.014019
0.007466
0.007251
0.012922
0.011120
0.009785
0.009822
0.009401
0.009978
0.009596
0.018188
0.017802
0.004424
0.006804
0.004002
0.004248
0.011991
0.017536
0.017708
0.007250
0.009888
0.013098
0.049280
0.006196
0.005721
0.009437
0.009638
0.009556
0.004470
0.003917
0.010575
0.010660
0.022035
0.016060
0.040341
0.017929
0.009266
0.007731
0.013714
0.005595
0.007704
0.003401
0.002720
0.015049
0.009428
0.006889
0.007879
0.007431
0.011992
0.017113
0.024435
0.023843
0.017897
0.020307
0.005476
0.013123
0.003592
0.013079
0.008033
0.007344
0.005107
0.036160
0.010579
0.009750
0.057367
0.031724
0.031824
0.055247
0.012086
0.040202
0.016118
0.013725
0.007462
0.014098
0.003258
0.002385
0.046202
0.051070
0.032353
0.051449
0.013521
0.016901
0.006675
0.015037
0.023242
0.054933
0.040269
0.029137
0.013545
0.012548
0.012325
0.003944
0.011712
0.015954
0.027789
0.029538
0.005250
0.048512
0.029730
0.016567
0.019589
0.019698
0.039662
0.008295
0.006980
0.007966
0.048516
0.014197
0.013832
0.010989
0.011015
0.013821
0.016590
0.019371
0.019594
0.011483
0.010735
0.009910
0.008976
0.007520
0.012287
0.010155
0.009208
0.008297
0.012312
0.006178
0.010159
0.013033
0.007239
0.010966
0.010051
0.005658
0.009237
0.008242
0.011683
0.014369
0.004885
0.003467
0.007786
0.006942
0.019611
0.029590
