# vtk DataFile Version 2.0
Unstructured Grid Example
ASCII
DATASET UNSTRUCTURED_GRID
POINTS 749 float
-0.006904 0.000667 0.020065 
0.493541 0.001710 -0.019154 
0.198527 0.698343 0.000744 
0.702481 0.699886 0.001616 
0.099032 0.697916 0.001684 
0.099601 0.997863 -0.006012 
1.594460 0.992353 -0.026873 
1.594705 0.692138 -0.000790 
0.920314 0.499932 0.011753 
1.001767 0.696820 0.015030 
0.643910 0.502142 -0.005440 
0.658629 0.551815 -0.003569 
0.905046 0.549882 0.010982 
1.051501 0.696486 0.016289 
0.006719 -0.000552 0.199975 
0.506279 -0.001789 0.160836 
0.201484 0.701590 0.180791 
0.697636 0.700142 0.181727 
0.101077 0.701917 0.181677 
0.100353 1.001970 0.173992 
1.605627 1.007431 0.153152 
1.605108 0.707683 0.179214 
0.909994 0.499864 0.191717 
0.998292 0.703287 0.195071 
0.641915 0.497792 0.174515 
0.655635 0.548234 0.176514 
0.895236 0.549906 0.190915 
1.048495 0.703772 0.196546 
1.602655 0.853756 0.121034 
1.597278 0.846046 0.031004 
1.599973 0.894872 0.072082 
1.599952 0.804908 0.080032 
0.300187 0.850744 0.131386 
0.299845 0.849195 0.041429 
0.299940 0.894972 0.085463 
0.300019 0.804942 0.087334 
0.118087 0.000714 0.010418 
0.243170 0.000993 0.000248 
0.368307 0.001365 -0.009775 
0.018239 0.088135 0.018613 
0.043413 0.175577 0.017024 
0.068486 0.262951 0.015394 
0.093769 0.350256 0.013519 
0.119636 0.437370 0.010805 
0.145960 0.524407 0.007609 
0.172016 0.611342 0.004177 
0.149006 0.697926 0.001132 
0.099366 0.847860 -0.002256 
0.206816 0.997939 -0.006439 
0.314276 0.998274 -0.006496 
0.422091 0.998631 -0.005874 
0.529891 0.998818 -0.004419 
0.637599 0.998871 -0.002223 
0.744981 0.998546 0.000268 
0.851720 0.997964 0.002469 
0.957829 0.997148 0.003499 
1.063467 0.996116 0.002517 
1.168775 0.994756 -0.000708 
1.274601 0.993930 -0.005969 
1.380747 0.993197 -0.012597 
1.487429 0.992573 -0.019812 
1.594513 0.842163 -0.014004 
0.852701 0.697806 0.009636 
0.616869 0.419531 -0.010120 
0.591385 0.336061 -0.014320 
0.566615 0.252485 -0.016927 
0.541873 0.168707 -0.018296 
0.517567 0.085151 -0.019065 
0.783365 0.500489 0.002131 
0.986500 0.598548 0.016037 
0.953906 0.623741 0.014307 
0.783473 0.550273 0.002365 
0.680006 0.626383 -0.000639 
1.140596 0.694463 0.017955 
1.230748 0.693544 0.016779 
1.321153 0.692919 0.014091 
1.411937 0.692411 0.009681 
1.503166 0.692215 0.004566 
0.131678 -0.000612 0.190424 
0.256696 -0.000943 0.180351 
0.381444 -0.001347 0.170242 
0.031629 0.086987 0.198649 
0.056539 0.174532 0.197035 
0.081443 0.262165 0.195415 
0.106255 0.349885 0.193548 
0.130632 0.437719 0.190891 
0.154208 0.525684 0.187720 
0.178096 0.613680 0.184152 
0.151103 0.701946 0.181194 
0.100646 0.851971 0.177738 
0.207392 1.001914 0.173566 
0.314247 1.001687 0.173484 
0.420680 1.001302 0.174178 
0.527204 1.001207 0.175507 
0.633782 1.001173 0.177738 
0.740699 1.001536 0.180270 
0.848252 1.002163 0.182460 
0.956455 1.002994 0.183495 
1.065102 1.004000 0.182520 
1.174085 1.005351 0.179319 
1.282499 1.006061 0.174080 
1.390682 1.006808 0.167266 
1.498381 1.007348 0.160146 
1.605390 0.857648 0.166023 
0.847319 0.702296 0.189616 
0.621371 0.413734 0.169873 
0.598953 0.330411 0.165789 
0.576377 0.247495 0.162983 
0.553319 0.164491 0.161739 
0.529871 0.081449 0.160923 
0.774780 0.499305 0.182048 
0.978648 0.601233 0.195937 
0.946235 0.626054 0.194191 
0.773991 0.549513 0.182338 
0.677169 0.623845 0.179163 
1.142589 0.705576 0.197905 
1.235796 0.706512 0.196855 
1.328720 0.707136 0.194038 
1.421252 0.707529 0.189752 
1.513348 0.707679 0.184532 
-0.000021 0.000067 0.110023 
0.499922 -0.000049 0.070852 
0.200056 0.699967 0.090926 
0.699983 0.700101 0.091740 
0.100101 0.699886 0.091626 
0.099967 0.999923 0.084015 
1.600098 0.999872 0.063216 
1.599930 0.699916 0.089173 
0.915181 0.499936 0.101659 
0.999941 0.700008 0.105373 
0.643045 0.499971 0.084021 
0.657321 0.549960 0.086201 
0.900179 0.549944 0.100940 
1.049924 0.699968 0.106839 
1.601819 0.820799 0.110705 
1.598090 0.815378 0.047049 
1.598098 0.879036 0.041406 
1.601885 0.884400 0.105069 
0.299943 0.881249 0.053957 
0.299872 0.817649 0.055245 
0.300184 0.818658 0.118859 
0.300074 0.882349 0.117584 
1.509680 0.853727 0.126747 
1.416627 0.853649 0.132441 
1.323302 0.853353 0.137638 
1.229921 0.852983 0.141725 
1.136355 0.852543 0.144337 
1.042985 0.852155 0.144872 
0.949452 0.851671 0.143637 
0.856119 0.851197 0.141450 
0.763155 0.850758 0.138442 
0.670346 0.850443 0.135488 
0.577762 0.850356 0.133168 
0.485325 0.850409 0.131664 
0.392764 0.850516 0.131166 
1.507131 0.894956 0.077880 
1.414271 0.894987 0.083824 
1.321427 0.895029 0.089155 
1.228594 0.895047 0.093846 
1.135720 0.895044 0.096762 
1.042859 0.895073 0.097854 
0.949999 0.895075 0.097229 
0.857136 0.895052 0.095348 
0.764278 0.895039 0.092691 
0.671424 0.895009 0.089985 
0.578572 0.894998 0.087732 
0.485695 0.894983 0.086188 
0.392896 0.894998 0.085429 
1.504542 0.846192 0.036759 
1.411870 0.846332 0.042457 
1.319516 0.846693 0.047627 
1.227091 0.847017 0.051748 
1.135021 0.847555 0.054318 
1.042737 0.848009 0.054856 
0.950561 0.848464 0.053719 
0.858130 0.848888 0.051450 
0.765411 0.849346 0.048418 
0.672476 0.849577 0.045423 
0.579349 0.849721 0.043130 
0.486187 0.849603 0.041669 
0.392947 0.849421 0.041169 
1.507104 0.804946 0.085683 
1.414210 0.804979 0.091219 
1.321360 0.804981 0.096195 
1.228597 0.805098 0.099922 
1.135580 0.804954 0.102093 
1.042841 0.805050 0.102034 
0.949978 0.805064 0.100317 
0.857134 0.805056 0.097592 
0.764249 0.805014 0.094104 
0.671472 0.805016 0.090757 
0.578601 0.804994 0.088346 
0.485674 0.805011 0.086935 
0.392885 0.804986 0.086670 
1.602507 0.955069 0.107562 
1.602272 0.751559 0.125314 
1.597582 0.744636 0.044672 
1.597604 0.947834 0.027759 
1.595828 0.778398 0.011818 
1.604034 0.790404 0.151779 
1.595669 0.908259 -0.000407 
1.604257 0.921318 0.140350 
1.596548 0.814006 0.021286 
1.603362 0.823853 0.136271 
1.596454 0.875178 0.014886 
1.603447 0.885771 0.130813 
1.601890 0.914988 0.101788 
1.601776 0.789991 0.112850 
1.598094 0.784640 0.050289 
1.597939 0.908531 0.036789 
1.599941 0.759112 0.084037 
1.599979 0.939657 0.067500 
0.344519 0.833110 0.114325 
1.557142 0.835036 0.108056 
0.717287 0.827861 0.114717 
0.810150 0.827901 0.117929 
0.903176 0.828334 0.120856 
0.624577 0.827653 0.111871 
1.182599 0.828896 0.122060 
0.439171 0.827696 0.109032 
0.996303 0.828538 0.122928 
0.531912 0.827659 0.109977 
1.089447 0.828731 0.123399 
1.275704 0.829070 0.118989 
1.368843 0.829250 0.114473 
1.461876 0.829353 0.109014 
0.333452 0.817227 0.099032 
1.567320 0.818079 0.093133 
0.344495 0.867668 0.113626 
1.557158 0.869496 0.104992 
0.810212 0.872998 0.116988 
0.717325 0.872813 0.114165 
0.903229 0.873215 0.119429 
0.624544 0.872718 0.111607 
0.996454 0.873441 0.121024 
0.531847 0.872758 0.109667 
0.439130 0.872727 0.108561 
1.182685 0.873840 0.119195 
1.089561 0.873690 0.120989 
1.275877 0.874134 0.115766 
1.368880 0.874214 0.110828 
1.461933 0.874304 0.105215 
0.333348 0.883044 0.097758 
1.567340 0.883791 0.087325 
0.300006 0.849938 0.086570 
0.300052 0.832290 0.094155 
0.299933 0.842283 0.068717 
0.300081 0.857259 0.104365 
0.299965 0.867847 0.079317 
1.553937 0.830329 0.052541 
0.344371 0.821922 0.069508 
0.718393 0.827366 0.069637 
0.811226 0.827180 0.072932 
0.903931 0.826790 0.075751 
0.625472 0.827331 0.066813 
1.089031 0.826308 0.078589 
0.532408 0.827366 0.064989 
0.996543 0.826619 0.077969 
1.181514 0.826099 0.077063 
0.439388 0.827248 0.064021 
1.274198 0.825931 0.073924 
1.366775 0.825737 0.069451 
1.459460 0.825576 0.064030 
1.565910 0.816016 0.068863 
0.333279 0.837327 0.053661 
0.344398 0.866794 0.058163 
1.554545 0.876194 0.059078 
0.718377 0.872240 0.069154 
0.811203 0.872099 0.071982 
0.903908 0.871918 0.074432 
0.625461 0.872295 0.066572 
1.181594 0.871230 0.074187 
0.996417 0.871704 0.076030 
1.089000 0.871434 0.075985 
0.532464 0.872264 0.064656 
0.439429 0.872210 0.063539 
1.274110 0.870982 0.070710 
1.366797 0.870813 0.065818 
1.459448 0.870643 0.060223 
0.333329 0.882672 0.073523 
1.564711 0.859261 0.044110 
0.418111 0.595678 -0.002592 
0.341394 0.363044 -0.002287 
0.381351 0.792220 -0.003077 
0.529812 0.717196 -0.002377 
0.539445 0.557807 -0.004428 
1.036344 0.844892 0.009619 
0.321376 0.680070 -0.001391 
0.436156 0.473685 -0.004698 
0.290936 0.494375 0.001030 
0.241139 0.189881 0.002293 
0.621417 0.835235 -0.000745 
0.265133 0.773168 -0.001842 
0.430642 0.698869 -0.002543 
1.172656 0.841783 0.008421 
0.397190 0.209984 -0.008341 
1.362076 0.839731 0.000411 
0.511047 0.838274 -0.002909 
0.495676 0.636866 -0.003034 
0.473684 0.344229 -0.009423 
0.593328 0.636446 -0.002401 
0.312300 0.587577 -0.000075 
0.228214 0.361217 0.004412 
0.771274 0.831106 0.003787 
0.545359 0.461329 -0.007301 
1.099190 0.791818 0.012410 
0.724931 0.528739 -0.000799 
0.904513 0.903399 0.005924 
0.938355 0.776776 0.010680 
0.840772 0.527891 0.006296 
0.319023 0.885554 -0.004303 
0.260878 0.637588 0.000716 
0.462472 0.529902 -0.004227 
0.371110 0.511667 -0.002298 
0.399504 0.885112 -0.004332 
0.596469 0.542410 -0.004856 
1.022189 0.765302 0.013081 
0.629576 0.747350 -0.000223 
0.994034 0.647002 0.015509 
0.167930 0.107361 0.007386 
0.188496 0.795874 -0.001629 
1.273281 0.784669 0.009022 
1.461309 0.784780 -0.000846 
0.172018 0.282856 0.008038 
0.337735 0.116299 -0.005792 
0.383493 0.648117 -0.001938 
0.942414 0.571132 0.013338 
0.207143 0.449525 0.005258 
0.478187 0.757982 -0.002818 
0.263927 0.707081 -0.000718 
0.359417 0.440644 -0.002412 
0.199154 0.893745 -0.004056 
0.283998 0.292329 0.000189 
1.100064 0.907402 0.006168 
1.267265 0.885846 0.001910 
0.258261 0.562678 0.001957 
1.453611 0.896738 -0.009807 
0.573774 0.907751 -0.002538 
0.452428 0.149555 -0.013218 
0.373847 0.720407 -0.002277 
0.478761 0.250125 -0.012390 
0.433618 0.068552 -0.013649 
0.285793 0.414089 0.001114 
0.693787 0.902707 0.000454 
0.620646 0.589330 -0.003062 
0.590835 0.488748 -0.006668 
0.537586 0.385393 -0.010298 
0.556989 0.780300 -0.001983 
0.480361 0.579711 -0.003649 
0.699078 0.791010 0.001747 
[...]
POINT_DATA 749
SCALARS u float 1
LOOKUP_TABLE default
0.078536
0.075043
0.008652
0.010960
0.010539
0.023651
0.105371
0.035188
0.047716
0.057208
0.021978
0.015800
0.044710
0.061893
0.077990
0.074895
0.008563
0.010842
0.010228
0.023425
0.105136
0.034252
0.047138
0.057413
0.022149
0.015497
0.044056
0.063027
0.054395
0.054736
0.066286
0.036878
0.013669
0.013552
0.016784
0.009865
0.046330
0.025548
0.044114
0.073296
0.067559
0.061857
0.055074
0.044627
0.031946
0.019466
0.009481
0.011739
0.025038
0.024866
0.022444
0.017612
0.011563
0.009575
0.013440
0.016889
0.017387
0.021901
0.034750
0.056059
0.080807
0.062740
0.037899
0.039735
0.055780
0.065748
0.071342
0.074515
0.018295
0.061380
0.055061
0.020157
0.007742
0.069618
0.067192
0.060049
0.048754
0.038471
0.045852
0.025050
0.043547
0.073242
0.067522
0.061818
0.055203
0.045366
0.032624
0.019649
0.009380
0.011353
0.024851
0.024901
0.022242
0.017938
0.011830
0.009848
0.013734
0.017216
0.017749
0.022243
0.034546
0.056488
0.080935
0.062221
0.037893
0.039938
0.055401
0.066209
0.071222
0.074378
0.017309
0.060826
0.054454
0.019110
0.007402
0.069458
0.067462
0.059857
0.048631
0.037842
0.074072
0.070836
0.003435
0.006446
0.006043
0.022142
0.099086
0.003086
0.043135
0.056870
0.022131
0.014072
0.040477
0.062294
0.042776
0.043047
0.063293
0.063085
0.015766
0.011045
0.011116
0.015795
0.034789
0.018624
0.017238
0.027668
0.035875
0.037381
0.032607
0.024561
0.013692
0.004688
0.007525
0.012516
0.014314
0.044835
0.022846
0.003127
0.014230
0.025017
0.029057
0.026743
0.019787
0.009956
0.000067
0.008390
0.014103
0.016910
0.034935
0.018775
0.017150
0.027839
0.035727
0.037198
0.032817
0.024487
0.013530
0.004463
0.007563
0.012534
0.014336
0.015972
0.004518
0.022920
0.036706
0.044741
0.044518
0.038166
0.028086
0.015181
0.002806
0.006119
0.011338
0.012320
0.085534
0.023855
0.024414
0.085438
0.040860
0.040234
0.077416
0.077317
0.047255
0.046850
0.065635
0.065422
0.072668
0.033217
0.033628
0.072732
0.022063
0.080487
0.012743
0.037299
0.008574
0.020248
0.031101
0.002861
0.035781
0.012858
0.038770
0.009390
0.040581
0.024834
0.010414
0.015223
0.011454
0.033541
0.015338
0.048277
0.016808
0.006569
0.025798
0.003797
0.031723
0.010580
0.014606
0.025338
0.031728
0.013893
0.009631
0.028128
0.016166
0.054912
0.013245
0.011945
0.012770
0.013838
0.014639
0.037511
0.012056
0.008165
0.020220
0.030663
0.003144
0.041269
0.009354
0.038869
0.035830
0.012911
0.024644
0.010519
0.015395
0.033702
0.012975
0.015214
0.051048
0.006484
0.016746
0.025763
0.003909
0.025260
0.031693
0.031652
0.010623
0.014703
0.013544
0.009646
0.028174
0.016118
0.049820
0.011112
0.019977
0.011988
0.009338
0.017434
0.038282
0.007628
0.020596
0.013989
0.025762
0.008209
0.009495
0.009614
0.038007
0.037961
0.030978
0.011664
0.011539
0.038798
0.010685
0.009098
0.026773
0.017639
0.029244
0.048822
0.013500
0.024394
0.041563
0.029830
0.016935
0.009740
0.017442
0.013660
0.016746
0.019470
0.050361
0.007284
0.058968
0.036873
0.009927
0.042738
0.033910
0.038030
0.032364
0.008505
0.052303
0.026022
0.010631
0.007655
0.016780
0.016847
0.022319
0.028993
0.027836
0.013509
0.049536
0.011655
0.053982
0.009076
0.050142
0.056180
0.017538
0.009105
0.013463
0.026367
0.040931
0.008946
0.014380
0.011856
0.026382
0.047081
0.030584
0.010045
0.008393
0.007083
0.024769
0.027193
0.007861
0.055351
0.039579
0.016467
0.013885
0.021714
0.073727
0.029121
0.009066
0.010120
0.035169
0.009511
0.015664
0.014391
0.021748
0.010448
0.048312
0.029484
0.037066
0.026505
0.022570
0.012725
0.051150
0.060649
0.007743
0.036080
0.014230
0.024530
0.012837
0.014061
0.013892
0.035298
0.020614
0.038983
0.007845
0.020250
0.010830
0.019855
0.058946
0.039009
0.022122
0.055078
0.007872
0.010837
0.019562
0.009453
0.011470
0.020537
0.011902
0.008975
0.017590
0.038661
0.007714
0.021300
0.014282
0.025934
0.008058
0.009527
0.009375
0.038184
0.038779
0.031013
0.011613
0.011357
0.038576
0.010732
0.009392
0.026788
0.017781
0.029962
0.049061
0.012827
0.024587
0.041647
0.029007
0.016979
0.009793
0.017648
0.013813
0.016537
0.019464
0.050102
0.007547
0.058745
0.036847
0.009699
0.043027
0.033488
0.037714
0.032182
0.008775
0.051767
0.026948
0.010516
0.007480
0.016977
0.016644
0.022677
0.029258
0.028055
0.013569
0.049534
0.011615
0.054292
0.009309
0.050387
0.055903
0.017783
0.009309
0.013169
0.026750
0.040663
0.008639
0.014722
0.012059
0.026149
0.047263
0.031284
0.010260
0.008027
0.007266
0.024372
0.027348
0.007975
0.055826
0.039446
0.016661
0.013879
0.022392
0.073640
0.029092
0.008591
0.009735
0.035467
0.009958
0.015770
0.014986
0.021507
0.010228
0.048377
0.029537
0.036287
0.026413
0.022866
0.012755
0.050608
0.060339
0.008038
0.035352
0.013937
0.024892
0.012955
0.014055
0.014380
0.035382
0.020497
0.039319
0.008085
0.020190
0.010739
0.020088
0.059338
0.039534
0.022106
0.055021
0.007767
0.011188
0.019375
0.009512
0.060011
0.070000
0.044377
0.065940
0.071074
0.033046
0.032628
0.071248
0.003120
0.024733
0.025295
0.063328
0.053281
0.053791
0.052206
0.057003
0.057210
0.021786
0.021707
0.047409
0.047459
0.035680
0.002853
0.003453
0.007037
0.016813
0.005859
0.006667
0.066378
0.044803
0.025120
0.058990
0.067136
0.014148
0.016137
0.066579
0.024357
0.023534
0.019976
0.013083
0.003725
0.005695
0.012360
0.013058
0.005348
0.010923
0.033452
0.058936
0.081585
0.023478
0.023310
0.089411
0.018945
0.016284
0.049314
0.051305
0.065763
0.053787
0.021116
0.046447
0.060074
0.033733
0.011315
0.071050
0.071763
0.010859
0.006017
0.006957
0.005932
0.007122
0.015839
0.015692
0.003266
0.002863
0.008354
0.056671
0.006972
0.006604
0.010667
0.002583
0.014019
0.007466
0.007251
0.012922
0.011120
0.009785
0.009822
0.009401
0.009978
0.009596
0.018188
0.017802
0.004424
0.006804
0.004002
0.004248
0.011991
0.017536
0.017708
0.007250
0.009888
0.013098
0.049280
0.006196
0.005721
0.009437
0.009638
0.009556
0.004470
0.003917
0.010575
0.010660
0.022035
0.016060
0.040341
0.017929
0.009266
0.007731
0.013714
0.005595
0.007704
0.003401
0.002720
0.015049
0.009428
0.006889
0.007879
0.007431
0.011992
0.017113
0.024435
0.023843
0.017897
0.020307
0.005476
0.013123
0.003592
0.013079
0.008033
0.007344
0.005107
0.036160
0.010579
0.009750
0.057367
0.031724
0.031824
0.055247
0.012086
0.040202
0.016118
0.013725
0.007462
0.014098
0.003258
0.002385
0.046202
0.051070
0.032353
0.051449
0.013521
0.016901
0.006675
0.015037
0.023242
0.054933
0.040269
0.029137
0.013545
0.012548
0.012325
0.003944
0.011712
0.015954
0.027789
0.029538
0.005250
0.048512
0.029730
0.016567
0.019589
0.019698
0.039662
0.008295
0.006980
0.007966
0.048516
0.014197
0.013832
0.010989
0.011015
0.013821
0.016590
0.019371
0.019594
0.011483
0.010735
0.009910
0.008976
0.007520
0.012287
0.010155
0.009208
0.008297
0.012312
0.006178
0.010159
0.013033
0.007239
0.010966
0.010051
0.005658
0.009237
0.008242
0.011683
0.014369
0.004885
0.003467
0.007786
0.006942
0.019611
0.029590
