# vtk DataFile Version 2.0
Unstructured Grid Example
ASCII
DATASET UNSTRUCTURED_GRID
POINTS 749 float
-0.011059 0.001068 0.032141 
0.489653 0.002738 -0.030681 
0.197640 0.697345 0.001192 
0.703974 0.699818 0.002589 
0.098449 0.696662 0.002697 
0.099361 0.996577 -0.009631 
1.591125 0.987751 -0.043047 
1.591518 0.687406 -0.001266 
0.923513 0.499892 0.018826 
1.002831 0.694906 0.024077 
0.644544 0.503431 -0.008715 
0.659523 0.552908 -0.005717 
0.908083 0.549811 0.017591 
1.052404 0.694372 0.026092 
0.010763 -0.000884 0.211998 
0.510059 -0.002866 0.149302 
0.202377 0.702547 0.181268 
0.696214 0.700228 0.182767 
0.101725 0.703070 0.182686 
0.100565 1.003155 0.170377 
1.609013 1.011904 0.136993 
1.608182 0.712306 0.178741 
0.906981 0.499782 0.198769 
0.997264 0.705265 0.204142 
0.641349 0.496463 0.171213 
0.654727 0.547171 0.174415 
0.892369 0.549850 0.197484 
1.047590 0.706042 0.206505 
1.604253 0.856017 0.112628 
1.595640 0.843666 0.022580 
1.599957 0.894796 0.061298 
1.599923 0.804853 0.074032 
0.300299 0.851191 0.129210 
0.299752 0.848710 0.039281 
0.299903 0.894955 0.082733 
0.300031 0.804906 0.085729 
0.113926 0.001144 0.016689 
0.239059 0.001591 0.000398 
0.364279 0.002187 -0.015658 
0.014170 0.088518 0.029816 
0.039449 0.175924 0.027270 
0.064566 0.263222 0.024658 
0.090019 0.350410 0.021655 
0.116408 0.437292 0.017308 
0.143529 0.524049 0.012189 
0.170221 0.610645 0.006691 
0.148408 0.696678 0.001813 
0.098984 0.846573 -0.003614 
0.206620 0.996699 -0.010314 
0.314270 0.997235 -0.010406 
0.422490 0.997808 -0.009409 
0.530685 0.998107 -0.007079 
0.638734 0.998191 -0.003561 
0.746260 0.997670 0.000429 
0.852755 0.996738 0.003955 
0.958242 0.995432 0.005604 
1.062975 0.993778 0.004032 
1.167177 0.991599 -0.001134 
1.272211 0.990276 -0.009561 
1.377758 0.989103 -0.020179 
1.484162 0.988102 -0.031736 
1.591210 0.837447 -0.022432 
0.854327 0.696486 0.015435 
0.615557 0.421255 -0.016211 
0.589065 0.337703 -0.022939 
0.563718 0.253980 -0.027115 
0.538415 0.169935 -0.029307 
0.513810 0.086245 -0.030539 
0.786034 0.500784 0.003414 
0.988908 0.597673 0.025689 
0.956256 0.622983 0.022918 
0.786423 0.550437 0.003788 
0.680870 0.627215 -0.001024 
1.139951 0.691131 0.028760 
1.229191 0.689658 0.026878 
1.318838 0.688657 0.022572 
1.409090 0.687844 0.015508 
1.500057 0.687530 0.007315 
0.135697 -0.000980 0.196698 
0.260727 -0.001511 0.180562 
0.385323 -0.002158 0.164369 
0.035618 0.086678 0.209873 
0.060474 0.174251 0.207287 
0.085321 0.261964 0.204692 
0.110019 0.349816 0.201702 
0.134022 0.437851 0.197446 
0.156740 0.526096 0.192367 
0.179959 0.614390 0.186650 
0.151767 0.703117 0.181913 
0.101034 0.853157 0.176376 
0.207542 1.003066 0.169693 
0.314224 1.002703 0.169562 
0.420229 1.002085 0.170674 
0.526381 1.001933 0.172803 
0.632619 1.001879 0.176376 
0.739401 1.002460 0.180432 
0.847200 1.003464 0.183940 
0.956041 1.004797 0.185599 
1.065593 1.006408 0.184036 
1.175684 1.008572 0.178909 
1.284863 1.009709 0.170517 
1.393672 1.010905 0.159603 
1.501705 1.011770 0.148197 
1.608634 0.862252 0.157611 
0.845706 0.703678 0.195403 
0.622769 0.411968 0.163778 
0.601189 0.328652 0.157236 
0.579355 0.245987 0.152742 
0.556749 0.163181 0.150749 
0.533519 0.080315 0.149441 
0.772282 0.498886 0.183281 
0.976329 0.601975 0.205529 
0.943969 0.626689 0.202732 
0.771234 0.549220 0.183745 
0.676324 0.623150 0.178659 
1.143145 0.708932 0.208681 
1.237278 0.710432 0.206999 
1.330959 0.711430 0.202486 
1.424011 0.712061 0.195622 
1.516366 0.712300 0.187259 
-0.000033 0.000108 0.122074 
0.499875 -0.000078 0.059327 
0.200090 0.699947 0.091484 
0.699974 0.700162 0.092786 
0.100163 0.699817 0.092605 
0.099948 0.999877 0.080413 
1.600157 0.999794 0.047095 
1.599889 0.699865 0.088675 
0.915290 0.499897 0.108676 
0.999905 0.700012 0.114625 
0.643158 0.499954 0.080422 
0.657428 0.549936 0.083914 
0.900287 0.549911 0.107524 
1.049878 0.699949 0.116974 
1.602914 0.822376 0.104015 
1.596941 0.813691 0.040350 
1.596953 0.877360 0.031311 
1.603019 0.885953 0.094987 
0.299908 0.880905 0.051415 
0.299795 0.817329 0.053478 
0.300295 0.818946 0.117077 
0.300118 0.882668 0.115034 
1.511206 0.855970 0.121780 
1.418037 0.855844 0.130900 
1.324430 0.855371 0.139226 
1.230732 0.854779 0.145772 
1.136741 0.854073 0.149956 
1.043062 0.853451 0.150813 
0.949123 0.852677 0.148835 
0.855503 0.851917 0.145332 
0.762474 0.851215 0.140513 
0.669695 0.850709 0.135782 
0.577276 0.850571 0.132065 
0.485091 0.850655 0.129657 
0.392707 0.850827 0.128859 
1.507123 0.894929 0.070586 
1.414262 0.894980 0.080107 
1.321426 0.895047 0.088647 
1.228607 0.895075 0.096161 
1.135723 0.895071 0.100832 
1.042861 0.895117 0.102582 
0.949998 0.895120 0.101579 
0.857132 0.895083 0.098567 
0.764273 0.895063 0.094310 
0.671422 0.895015 0.089976 
0.578573 0.894997 0.086367 
0.485684 0.894973 0.083893 
0.392920 0.894997 0.082678 
1.502976 0.843901 0.031799 
1.410415 0.844124 0.040927 
1.318366 0.844703 0.049208 
1.226200 0.845221 0.055810 
1.134603 0.846084 0.059925 
1.042665 0.846811 0.060787 
0.950898 0.847540 0.058967 
0.858724 0.848218 0.055332 
0.766088 0.848952 0.050475 
0.673107 0.849323 0.045677 
0.579817 0.849552 0.042005 
0.486472 0.849364 0.039664 
0.393001 0.849072 0.038864 
1.507081 0.804914 0.083085 
1.414164 0.804967 0.091952 
1.321318 0.804969 0.099924 
1.228613 0.805157 0.105893 
1.135499 0.804926 0.109372 
1.042832 0.805079 0.109277 
0.949965 0.805103 0.106526 
0.857129 0.805090 0.102161 
0.764228 0.805022 0.096573 
0.671497 0.805025 0.091213 
0.578619 0.804990 0.087351 
0.485650 0.805018 0.085091 
0.392902 0.804977 0.084665 
1.604016 0.957027 0.093868 
1.603640 0.753591 0.122303 
1.596126 0.742501 0.041655 
1.596162 0.945771 0.014088 
1.593318 0.774730 0.006875 
1.606461 0.793962 0.146850 
1.593063 0.904589 -0.012171 
1.606818 0.924816 0.128542 
1.594470 0.810988 0.014528 
1.605385 0.826761 0.129522 
1.594319 0.872125 0.004879 
1.605522 0.888655 0.120780 
1.603027 0.916491 0.090117 
1.602844 0.791548 0.107787 
1.596947 0.782977 0.045204 
1.596698 0.906744 0.025158 
1.599905 0.759063 0.080448 
1.599967 0.939543 0.054406 
0.344576 0.833327 0.112264 
1.558084 0.836413 0.102221 
0.716943 0.828079 0.116052 
0.809810 0.828143 0.121197 
0.902938 0.828836 0.125886 
0.624322 0.827745 0.111493 
1.182873 0.829737 0.127814 
0.439102 0.827814 0.106944 
0.996227 0.829162 0.129204 
0.531773 0.827754 0.108459 
1.089545 0.829471 0.129959 
1.276127 0.830014 0.122895 
1.369437 0.830302 0.115660 
1.462575 0.830468 0.106916 
0.333516 0.817288 0.097171 
1.567720 0.818654 0.087721 
0.344538 0.867920 0.111143 
1.558109 0.870847 0.097314 
0.809910 0.873298 0.119689 
0.717005 0.873001 0.115167 
0.903023 0.873646 0.123599 
0.624269 0.872850 0.111069 
0.996469 0.874007 0.126154 
0.531670 0.872913 0.107962 
0.439036 0.872864 0.106191 
1.183011 0.874647 0.123225 
1.089727 0.874407 0.126098 
1.276404 0.875118 0.117731 
1.369496 0.875245 0.109822 
1.462666 0.875390 0.100830 
0.333350 0.883145 0.095130 
1.567752 0.884343 0.078418 
0.300010 0.849924 0.084415 
0.300084 0.832344 0.092213 
0.299892 0.842087 0.066650 
0.300131 0.857437 0.102121 
0.299944 0.867756 0.076937 
1.552950 0.828872 0.046697 
0.344340 0.821724 0.067557 
0.718716 0.827285 0.070923 
0.811535 0.826987 0.076202 
0.904147 0.826363 0.080716 
0.625756 0.827230 0.066400 
1.088878 0.825591 0.085263 
0.532567 0.827286 0.063478 
0.996612 0.826088 0.084270 
1.181136 0.825256 0.082819 
0.439450 0.827097 0.061926 
1.273716 0.824986 0.077791 
1.366124 0.824676 0.070626 
1.458705 0.824419 0.061941 
1.565460 0.815349 0.063440 
0.333239 0.836997 0.051577 
0.344382 0.866519 0.055703 
1.553924 0.875258 0.050849 
0.718690 0.872084 0.070149 
0.811498 0.871858 0.074680 
0.904111 0.871567 0.078604 
0.625739 0.872172 0.066013 
1.181264 0.870465 0.078211 
0.996410 0.871224 0.081164 
1.088828 0.870793 0.081091 
0.532657 0.872123 0.062945 
0.439516 0.872035 0.061154 
1.273574 0.870068 0.072643 
1.366160 0.869798 0.064805 
1.458685 0.869525 0.055844 
0.333320 0.882549 0.070904 
1.563541 0.857538 0.036277 
0.417228 0.595914 -0.004151 
0.338527 0.363713 -0.003664 
0.381233 0.791620 -0.004929 
0.530291 0.717374 -0.003808 
0.539364 0.558775 -0.007093 
1.036495 0.842601 0.015409 
0.320656 0.679505 -0.002229 
0.434566 0.474525 -0.007525 
0.288747 0.494334 0.001650 
0.237224 0.190462 0.003673 
0.622612 0.834844 -0.001193 
0.264650 0.772206 -0.002951 
0.430379 0.698683 -0.004074 
1.171393 0.838472 0.013488 
0.393716 0.210918 -0.013361 
1.359313 0.835523 0.000658 
0.511670 0.837888 -0.004659 
0.495547 0.637283 -0.004860 
0.471293 0.345630 -0.015094 
0.593944 0.637191 -0.003845 
0.310837 0.587357 -0.000121 
0.224768 0.361439 0.007068 
0.772817 0.830295 0.006067 
0.544475 0.462925 -0.011695 
1.099028 0.789121 0.019879 
0.726971 0.529396 -0.001279 
0.905313 0.901850 0.009489 
0.939500 0.775015 0.017108 
0.843804 0.527914 0.010085 
0.319006 0.884614 -0.006893 
0.259534 0.636869 0.001148 
0.461521 0.530724 -0.006772 
0.369397 0.511968 -0.003680 
0.399715 0.884351 -0.006939 
0.596782 0.543591 -0.007778 
1.022839 0.763127 0.020953 
0.630752 0.747419 -0.000357 
0.995781 0.645641 0.024844 
0.163921 0.107754 0.011832 
0.188015 0.794684 -0.002609 
1.271369 0.780769 0.014451 
1.458265 0.780208 -0.001355 
0.168178 0.283210 0.012876 
0.333855 0.117019 -0.009278 
0.382756 0.648017 -0.003105 
0.945210 0.570751 0.021366 
0.204338 0.449323 0.008422 
0.478463 0.757788 -0.004515 
0.263148 0.706211 -0.001150 
0.357174 0.441204 -0.003863 
0.198903 0.892524 -0.006498 
0.280410 0.292878 0.000303 
1.099159 0.904636 0.009881 
1.265000 0.882097 0.003060 
0.256468 0.562201 0.003135 
1.450397 0.892291 -0.015710 
0.574752 0.907199 -0.004066 
0.448896 0.150725 -0.021174 
0.373443 0.720034 -0.003648 
0.475723 0.251435 -0.019846 
0.429736 0.069544 -0.021864 
0.283026 0.414278 0.001785 
0.695072 0.902022 0.000727 
0.621316 0.590307 -0.004905 
0.590656 0.490252 -0.010682 
0.535832 0.387083 -0.016496 
0.557815 0.780190 -0.003176 
0.479881 0.580360 -0.005845 
0.700629 0.790555 0.002798 
[...]
POINT_DATA 749
SCALARS u float 1
LOOKUP_TABLE default
0.078536
0.075043
0.008652
0.010960
0.010539
0.023651
0.105371
0.035188
0.047716
0.057208
0.021978
0.015800
0.044710
0.061893
0.077990
0.074895
0.008563
0.010842
0.010228
0.023425
0.105136
0.034252
0.047138
0.057413
0.022149
0.015497
0.044056
0.063027
0.054395
0.054736
0.066286
0.036878
0.013669
0.013552
0.016784
0.009865
0.046330
0.025548
0.044114
0.073296
0.067559
0.061857
0.055074
0.044627
0.031946
0.019466
0.009481
0.011739
0.025038
0.024866
0.022444
0.017612
0.011563
0.009575
0.013440
0.016889
0.017387
0.021901
0.034750
0.056059
0.080807
0.062740
0.037899
0.039735
0.055780
0.065748
0.071342
0.074515
0.018295
0.061380
0.055061
0.020157
0.007742
0.069618
0.067192
0.060049
0.048754
0.038471
0.045852
0.025050
0.043547
0.073242
0.067522
0.061818
0.055203
0.045366
0.032624
0.019649
0.009380
0.011353
0.024851
0.024901
0.022242
0.017938
0.011830
0.009848
0.013734
0.017216
0.017749
0.022243
0.034546
0.056488
0.080935
0.062221
0.037893
0.039938
0.055401
0.066209
0.071222
0.074378
0.017309
0.060826
0.054454
0.019110
0.007402
0.069458
0.067462
0.059857
0.048631
0.037842
0.074072
0.070836
0.003435
0.006446
0.006043
0.022142
0.099086
0.003086
0.043135
0.056870
0.022131
0.014072
0.040477
0.062294
0.042776
0.043047
0.063293
0.063085
0.015766
0.011045
0.011116
0.015795
0.034789
0.018624
0.017238
0.027668
0.035875
0.037381
0.032607
0.024561
0.013692
0.004688
0.007525
0.012516
0.014314
0.044835
0.022846
0.003127
0.014230
0.025017
0.029057
0.026743
0.019787
0.009956
0.000067
0.008390
0.014103
0.016910
0.034935
0.018775
0.017150
0.027839
0.035727
0.037198
0.032817
0.024487
0.013530
0.004463
0.007563
0.012534
0.014336
0.015972
0.004518
0.022920
0.036706
0.044741
0.044518
0.038166
0.028086
0.015181
0.002806
0.006119
0.011338
0.012320
0.085534
0.023855
0.024414
0.085438
0.040860
0.040234
0.077416
0.077317
0.047255
0.046850
0.065635
0.065422
0.072668
0.033217
0.033628
0.072732
0.022063
0.080487
0.012743
0.037299
0.008574
0.020248
0.031101
0.002861
0.035781
0.012858
0.038770
0.009390
0.040581
0.024834
0.010414
0.015223
0.011454
0.033541
0.015338
0.048277
0.016808
0.006569
0.025798
0.003797
0.031723
0.010580
0.014606
0.025338
0.031728
0.013893
0.009631
0.028128
0.016166
0.054912
0.013245
0.011945
0.012770
0.013838
0.014639
0.037511
0.012056
0.008165
0.020220
0.030663
0.003144
0.041269
0.009354
0.038869
0.035830
0.012911
0.024644
0.010519
0.015395
0.033702
0.012975
0.015214
0.051048
0.006484
0.016746
0.025763
0.003909
0.025260
0.031693
0.031652
0.010623
0.014703
0.013544
0.009646
0.028174
0.016118
0.049820
0.011112
0.019977
0.011988
0.009338
0.017434
0.038282
0.007628
0.020596
0.013989
0.025762
0.008209
0.009495
0.009614
0.038007
0.037961
0.030978
0.011664
0.011539
0.038798
0.010685
0.009098
0.026773
0.017639
0.029244
0.048822
0.013500
0.024394
0.041563
0.029830
0.016935
0.009740
0.017442
0.013660
0.016746
0.019470
0.050361
0.007284
0.058968
0.036873
0.009927
0.042738
0.033910
0.038030
0.032364
0.008505
0.052303
0.026022
0.010631
0.007655
0.016780
0.016847
0.022319
0.028993
0.027836
0.013509
0.049536
0.011655
0.053982
0.009076
0.050142
0.056180
0.017538
0.009105
0.013463
0.026367
0.040931
0.008946
0.014380
0.011856
0.026382
0.047081
0.030584
0.010045
0.008393
0.007083
0.024769
0.027193
0.007861
0.055351
0.039579
0.016467
0.013885
0.021714
0.073727
0.029121
0.009066
0.010120
0.035169
0.009511
0.015664
0.014391
0.021748
0.010448
0.048312
0.029484
0.037066
0.026505
0.022570
0.012725
0.051150
0.060649
0.007743
0.036080
0.014230
0.024530
0.012837
0.014061
0.013892
0.035298
0.020614
0.038983
0.007845
0.020250
0.010830
0.019855
0.058946
0.039009
0.022122
0.055078
0.007872
0.010837
0.019562
0.009453
0.011470
0.020537
0.011902
0.008975
0.017590
0.038661
0.007714
0.021300
0.014282
0.025934
0.008058
0.009527
0.009375
0.038184
0.038779
0.031013
0.011613
0.011357
0.038576
0.010732
0.009392
0.026788
0.017781
0.029962
0.049061
0.012827
0.024587
0.041647
0.029007
0.016979
0.009793
0.017648
0.013813
0.016537
0.019464
0.050102
0.007547
0.058745
0.036847
0.009699
0.043027
0.033488
0.037714
0.032182
0.008775
0.051767
0.026948
0.010516
0.007480
0.016977
0.016644
0.022677
0.029258
0.028055
0.013569
0.049534
0.011615
0.054292
0.009309
0.050387
0.055903
0.017783
0.009309
0.013169
0.026750
0.040663
0.008639
0.014722
0.012059
0.026149
0.047263
0.031284
0.010260
0.008027
0.007266
0.024372
0.027348
0.007975
0.055826
0.039446
0.016661
0.013879
0.022392
0.073640
0.029092
0.008591
0.009735
0.035467
0.009958
0.015770
0.014986
0.021507
0.010228
0.048377
0.029537
0.036287
0.026413
0.022866
0.012755
0.050608
0.060339
0.008038
0.035352
0.013937
0.024892
0.012955
0.014055
0.014380
0.035382
0.020497
0.039319
0.008085
0.020190
0.010739
0.020088
0.059338
0.039534
0.022106
0.055021
0.007767
0.011188
0.019375
0.009512
0.060011
0.070000
0.044377
0.065940
0.071074
0.033046
0.032628
0.071248
0.003120
0.024733
0.025295
0.063328
0.053281
0.053791
0.052206
0.057003
0.057210
0.021786
0.021707
0.047409
0.047459
0.035680
0.002853
0.003453
0.007037
0.016813
0.005859
0.006667
0.066378
0.044803
0.025120
0.058990
0.067136
0.014148
0.016137
0.066579
0.024357
0.023534
0.019976
0.013083
0.003725
0.005695
0.012360
0.013058
0.005348
0.010923
0.033452
0.058936
0.081585
0.023478
0.023310
0.089411
0.018945
0.016284
0.049314
0.051305
0.065763
0.053787
0.021116
0.046447
0.060074
0.033733
0.011315
0.071050
0.071763
0.010859
0.006017
0.006957
0.005932
0.007122
0.015839
0.015692
0.003266
0.002863
0.008354
0.056671
0.006972
0.006604
0.010667
0.002583
0.014019
0.007466
0.007251
0.012922
0.011120
0.009785
0.009822
0.009401
0.009978
0.009596
0.018188
0.017802
0.004424
0.006804
0.004002
0.004248
0.011991
0.017536
0.017708
0.007250
0.009888
0.013098
0.049280
0.006196
0.005721
0.009437
0.009638
0.009556
0.004470
0.003917
0.010575
0.010660
0.022035
0.016060
0.040341
0.017929
0.009266
0.007731
0.013714
0.005595
0.007704
0.003401
0.002720
0.015049
0.009428
0.006889
0.007879
0.007431
0.011992
0.017113
0.024435
0.023843
0.017897
0.020307
0.005476
0.013123
0.003592
0.013079
0.008033
0.007344
0.005107
0.036160
0.010579
0.009750
0.057367
0.031724
0.031824
0.055247
0.012086
0.040202
0.016118
0.013725
0.007462
0.014098
0.003258
0.002385
0.046202
0.051070
0.032353
0.051449
0.013521
0.016901
0.006675
0.015037
0.023242
0.054933
0.040269
0.029137
0.013545
0.012548
0.012325
0.003944
0.011712
0.015954
0.027789
0.029538
0.005250
0.048512
0.029730
0.016567
0.019589
0.019698
0.039662
0.008295
0.006980
0.007966
0.048516
0.014197
0.013832
0.010989
0.011015
0.013821
0.016590
0.019371
0.019594
0.011483
0.010735
0.009910
0.008976
0.007520
0.012287
0.010155
0.009208
0.008297
0.012312
0.006178
0.010159
0.013033
0.007239
0.010966
0.010051
0.005658
0.009237
0.008242
0.011683
0.014369
0.004885
0.003467
0.007786
0.006942
0.019611
0.029590
