# vtk DataFile Version 2.0
Unstructured Grid Example
ASCII
DATASET UNSTRUCTURED_GRID
POINTS 749 float
-0.002417 0.000233 0.007024 
0.497739 0.000598 -0.006705 
0.199484 0.699420 0.000260 
0.700868 0.699960 0.000566 
0.099661 0.699270 0.000589 
0.099860 0.999252 -0.002105 
1.598061 0.997323 -0.009407 
1.598146 0.697248 -0.000277 
0.916860 0.499976 0.004114 
1.000619 0.698887 0.005261 
0.643226 0.500750 -0.001904 
0.657663 0.550635 -0.001249 
0.901766 0.549959 0.003844 
1.050525 0.698770 0.005702 
0.002352 -0.000193 0.186992 
0.502198 -0.000626 0.173292 
0.200520 0.700557 0.180277 
0.699173 0.700050 0.180605 
0.100377 0.700671 0.180587 
0.100124 1.000690 0.177897 
1.601970 1.002601 0.170602 
1.601788 0.702689 0.179725 
0.913248 0.499952 0.184102 
0.999402 0.701151 0.185276 
0.642528 0.499227 0.178080 
0.656615 0.549382 0.178780 
0.898332 0.549967 0.183821 
1.049473 0.701320 0.185792 
1.600929 0.851315 0.130111 
1.599047 0.848616 0.040101 
1.599991 0.894955 0.083728 
1.599983 0.804968 0.086511 
0.300065 0.850260 0.133735 
0.299946 0.849718 0.043750 
0.299979 0.894990 0.088412 
0.300007 0.804980 0.089067 
0.122580 0.000250 0.003647 
0.247609 0.000348 0.000087 
0.372657 0.000478 -0.003422 
0.022633 0.087722 0.006516 
0.047694 0.175202 0.005959 
0.072720 0.262658 0.005389 
0.097819 0.350090 0.004732 
0.123122 0.437455 0.003782 
0.148586 0.524792 0.002664 
0.173956 0.612095 0.001462 
0.149652 0.699274 0.000396 
0.099778 0.849251 -0.000790 
0.207029 0.999279 -0.002254 
0.314282 0.999396 -0.002274 
0.421661 0.999521 -0.002056 
0.529033 0.999586 -0.001547 
0.636374 0.999605 -0.000778 
0.743601 0.999491 0.000094 
0.850602 0.999287 0.000864 
0.957383 0.999002 0.001225 
1.063999 0.998640 0.000881 
1.170500 0.998164 -0.000248 
1.277182 0.997875 -0.002089 
1.383976 0.997619 -0.004410 
1.490957 0.997400 -0.006935 
1.598079 0.847257 -0.004902 
0.850946 0.699232 0.003373 
0.618285 0.417669 -0.003543 
0.593889 0.334288 -0.005013 
0.569744 0.250870 -0.005925 
0.545608 0.167381 -0.006404 
0.521624 0.083970 -0.006674 
0.780481 0.500171 0.000746 
0.983900 0.599492 0.005614 
0.951367 0.624559 0.005008 
0.780287 0.550095 0.000828 
0.679074 0.625484 -0.000224 
1.141292 0.698062 0.006285 
1.232428 0.697740 0.005874 
1.323653 0.697521 0.004933 
1.415011 0.697343 0.003389 
1.506525 0.697275 0.001598 
0.127337 -0.000214 0.183649 
0.252344 -0.000330 0.180123 
0.377256 -0.000472 0.176584 
0.027320 0.087320 0.186528 
0.052289 0.174836 0.185963 
0.077256 0.262383 0.185396 
0.102189 0.349960 0.184742 
0.126972 0.437577 0.183813 
0.151473 0.525240 0.182702 
0.176084 0.612913 0.181453 
0.150386 0.700681 0.180418 
0.100226 0.850690 0.179208 
0.207230 1.000670 0.177748 
0.314272 1.000591 0.177719 
0.421167 1.000456 0.177962 
0.528093 1.000423 0.178427 
0.635038 1.000411 0.179208 
0.742102 1.000538 0.180094 
0.849388 1.000757 0.180861 
0.956902 1.001048 0.181224 
1.064571 1.001400 0.180882 
1.172358 1.001873 0.179762 
1.279946 1.002122 0.177928 
1.387453 1.002383 0.175543 
1.494791 1.002572 0.173050 
1.601887 0.852677 0.175107 
0.849062 0.700804 0.183366 
0.619861 0.415640 0.176455 
0.596538 0.332310 0.175026 
0.573161 0.249123 0.174043 
0.549614 0.165905 0.173608 
0.525931 0.082674 0.173322 
0.777476 0.499757 0.180717 
0.981151 0.600432 0.185579 
0.948682 0.625369 0.184968 
0.776968 0.549830 0.180818 
0.678080 0.624596 0.179707 
1.141990 0.701952 0.186268 
1.234195 0.702280 0.185900 
1.326302 0.702498 0.184914 
1.418272 0.702636 0.183414 
1.510089 0.702688 0.181586 
-0.000007 0.000024 0.097009 
0.499973 -0.000017 0.083297 
0.200020 0.699988 0.090324 
0.699994 0.700035 0.090609 
0.100036 0.699960 0.090569 
0.099989 0.999973 0.087905 
1.600034 0.999955 0.080624 
1.599976 0.699971 0.089710 
0.915063 0.499978 0.094081 
0.999979 0.700003 0.095381 
0.642923 0.499990 0.087907 
0.657205 0.549986 0.088670 
0.900063 0.549980 0.093830 
1.049973 0.699989 0.095895 
1.600637 0.819097 0.117929 
1.599331 0.817199 0.054284 
1.599334 0.880845 0.052309 
1.600660 0.882723 0.115956 
0.299980 0.881620 0.056702 
0.299955 0.817994 0.057153 
0.300064 0.818348 0.120783 
0.300026 0.882005 0.120337 
1.508031 0.851305 0.132111 
1.415105 0.851277 0.134104 
1.322085 0.851174 0.135924 
1.229044 0.851044 0.137354 
1.135939 0.850890 0.138268 
1.042902 0.850754 0.138456 
0.949808 0.850585 0.138023 
0.856785 0.850419 0.137258 
0.763890 0.850265 0.136205 
0.671050 0.850155 0.135171 
0.578288 0.850125 0.134359 
0.485578 0.850143 0.133832 
0.392824 0.850181 0.133658 
1.507139 0.894984 0.085757 
1.414281 0.894996 0.087838 
1.321428 0.895010 0.089704 
1.228579 0.895016 0.091346 
1.135716 0.895016 0.092367 
1.042858 0.895026 0.092749 
0.950000 0.895026 0.092530 
0.857141 0.895018 0.091872 
0.764283 0.895014 0.090942 
0.671427 0.895003 0.089995 
0.578572 0.894999 0.089206 
0.485708 0.894994 0.088666 
0.392871 0.894999 0.088400 
1.506232 0.848667 0.042115 
1.413440 0.848716 0.044110 
1.320759 0.848843 0.045920 
1.228053 0.848956 0.047362 
1.135471 0.849144 0.048262 
1.042815 0.849303 0.048450 
0.950196 0.849462 0.048052 
0.857488 0.849611 0.047258 
0.764680 0.849771 0.046197 
0.671795 0.849852 0.045148 
0.578844 0.849902 0.044345 
0.485880 0.849861 0.043834 
0.392889 0.849797 0.043659 
1.507129 0.804981 0.088489 
1.414259 0.804993 0.090427 
1.321404 0.804993 0.092169 
1.228580 0.805034 0.093473 
1.135667 0.804984 0.094233 
1.042852 0.805017 0.094212 
0.949992 0.805022 0.093611 
0.857140 0.805020 0.092658 
0.764273 0.805005 0.091436 
0.671444 0.805006 0.090265 
0.578582 0.804998 0.089421 
0.485700 0.805004 0.088927 
0.392867 0.804995 0.088834 
1.600878 0.952955 0.122351 
1.600795 0.749365 0.128565 
1.599153 0.746942 0.047929 
1.599161 0.950061 0.042522 
1.598540 0.782360 0.017156 
1.601412 0.786563 0.157103 
1.598484 0.912221 0.012296 
1.601490 0.917541 0.153102 
1.598792 0.817265 0.028585 
1.601177 0.820712 0.143559 
1.598759 0.878475 0.025693 
1.601207 0.882657 0.141648 
1.600661 0.913364 0.114393 
1.600622 0.788309 0.118318 
1.599333 0.786436 0.055779 
1.599278 0.910461 0.049350 
1.599979 0.759165 0.087913 
1.599993 0.939781 0.081640 
0.344457 0.832876 0.116551 
1.556124 0.833550 0.114356 
0.717657 0.827626 0.113276 
0.810517 0.827640 0.114401 
0.903433 0.827792 0.115425 
0.624852 0.827554 0.112280 
1.182302 0.827989 0.115847 
0.439246 0.827569 0.111286 
0.996385 0.827863 0.116150 
0.532062 0.827556 0.111617 
1.089342 0.827931 0.116315 
1.275246 0.828049 0.114771 
1.368202 0.828112 0.113191 
1.461121 0.828149 0.111280 
0.333382 0.817161 0.101042 
1.566888 0.817459 0.098977 
0.344449 0.867396 0.116306 
1.556130 0.868036 0.113284 
0.810539 0.872674 0.114071 
0.717671 0.872609 0.113083 
0.903452 0.872750 0.114925 
0.624840 0.872576 0.112187 
0.996438 0.872829 0.115484 
0.532039 0.872590 0.111508 
0.439231 0.872580 0.111121 
1.182333 0.872969 0.114844 
1.089382 0.872917 0.115472 
1.275307 0.873072 0.113643 
1.368215 0.873100 0.111915 
1.461141 0.873132 0.109950 
0.333346 0.882934 0.100596 
1.566895 0.883196 0.096944 
0.300002 0.849954 0.088897 
0.300018 0.832232 0.096252 
0.299976 0.842494 0.070951 
0.300029 0.857067 0.106788 
0.299988 0.867946 0.081887 
1.555002 0.831903 0.058851 
0.344405 0.822135 0.071615 
0.718045 0.827453 0.068248 
0.810894 0.827388 0.069402 
0.903697 0.827251 0.070388 
0.625165 0.827441 0.067260 
1.089197 0.827083 0.071382 
0.532236 0.827453 0.066621 
0.996469 0.827192 0.071165 
1.181923 0.827010 0.070848 
0.439322 0.827412 0.066282 
1.274719 0.826951 0.069749 
1.367478 0.826883 0.068183 
1.460275 0.826827 0.066285 
1.566395 0.816737 0.074720 
0.333321 0.837683 0.055913 
0.344415 0.867090 0.060819 
1.555215 0.877205 0.067964 
0.718039 0.872409 0.068079 
0.810885 0.872360 0.069069 
0.903689 0.872296 0.069926 
0.625161 0.872428 0.067175 
1.181951 0.872055 0.069841 
0.996425 0.872221 0.070486 
1.089186 0.872127 0.070470 
0.532255 0.872418 0.066505 
0.439336 0.872398 0.066113 
1.274688 0.871968 0.068624 
1.367486 0.871909 0.066911 
1.460271 0.871850 0.064953 
0.333339 0.882804 0.076352 
1.565975 0.861123 0.052569 
0.419065 0.595423 -0.000907 
0.344490 0.362321 -0.000801 
0.381478 0.792869 -0.001077 
0.529294 0.717004 -0.000832 
0.539533 0.556762 -0.001550 
1.036180 0.847367 0.003367 
0.322155 0.680680 -0.000487 
0.437873 0.472778 -0.001644 
0.293301 0.494419 0.000361 
0.245367 0.189254 0.000803 
0.620126 0.835658 -0.000261 
0.265654 0.774205 -0.000645 
0.430927 0.699070 -0.000890 
1.174019 0.845358 0.002948 
0.400942 0.208976 -0.002920 
1.365060 0.844275 0.000144 
0.510375 0.838690 -0.001018 
0.495817 0.636417 -0.001062 
0.476266 0.342716 -0.003299 
0.592663 0.635642 -0.000840 
0.313880 0.587815 -0.000026 
0.231935 0.360978 0.001545 
0.769607 0.831982 0.001326 
0.546314 0.459606 -0.002556 
1.099366 0.794731 0.004344 
0.722728 0.528028 -0.000280 
0.903650 0.905072 0.002074 
0.937119 0.778677 0.003738 
0.837497 0.527866 0.002204 
0.319041 0.886569 -0.001506 
0.262330 0.638365 0.000251 
0.463499 0.529015 -0.001480 
0.372961 0.511342 -0.000804 
0.399277 0.885935 -0.001516 
0.596131 0.541135 -0.001700 
1.021488 0.767651 0.004579 
0.628307 0.747276 -0.000078 
0.992146 0.648472 0.005429 
0.172259 0.106937 0.002586 
0.189016 0.797159 -0.000570 
1.275346 0.788880 0.003158 
1.464597 0.789718 -0.000296 
0.176166 0.282473 0.002814 
0.341925 0.115520 -0.002027 
0.384290 0.648225 -0.000679 
0.939395 0.571544 0.004669 
0.210172 0.449744 0.001840 
0.477888 0.758192 -0.000987 
0.264768 0.708022 -0.000251 
0.361840 0.440040 -0.000844 
0.199425 0.895063 -0.001420 
0.287872 0.291737 0.000066 
1.101041 0.910389 0.002159 
1.269711 0.889895 0.000669 
0.260198 0.563194 0.000685 
1.457083 0.901541 -0.003433 
0.572718 0.908347 -0.000889 
0.456242 0.148291 -0.004627 
0.374283 0.720810 -0.000797 
0.482042 0.248710 -0.004337 
0.437811 0.067482 -0.004778 
0.288781 0.413884 0.000390 
0.692399 0.903446 0.000159 
0.619923 0.588276 -0.001072 
0.591029 0.487123 -0.002334 
0.539480 0.383569 -0.003605 
0.556097 0.780418 -0.000694 
0.480878 0.579010 -0.001277 
0.697402 0.791502 0.000612 
[...]
POINT_DATA 749
SCALARS u float 1
LOOKUP_TABLE default
0.078536
0.075043
0.008652
0.010960
0.010539
0.023651
0.105371
0.035188
0.047716
0.057208
0.021978
0.015800
0.044710
0.061893
0.077990
0.074895
0.008563
0.010842
0.010228
0.023425
0.105136
0.034252
0.047138
0.057413
0.022149
0.015497
0.044056
0.063027
0.054395
0.054736
0.066286
0.036878
0.013669
0.013552
0.016784
0.009865
0.046330
0.025548
0.044114
0.073296
0.067559
0.061857
0.055074
0.044627
0.031946
0.019466
0.009481
0.011739
0.025038
0.024866
0.022444
0.017612
0.011563
0.009575
0.013440
0.016889
0.017387
0.021901
0.034750
0.056059
0.080807
0.062740
0.037899
0.039735
0.055780
0.065748
0.071342
0.074515
0.018295
0.061380
0.055061
0.020157
0.007742
0.069618
0.067192
0.060049
0.048754
0.038471
0.045852
0.025050
0.043547
0.073242
0.067522
0.061818
0.055203
0.045366
0.032624
0.019649
0.009380
0.011353
0.024851
0.024901
0.022242
0.017938
0.011830
0.009848
0.013734
0.017216
0.017749
0.022243
0.034546
0.056488
0.080935
0.062221
0.037893
0.039938
0.055401
0.066209
0.071222
0.074378
0.017309
0.060826
0.054454
0.019110
0.007402
0.069458
0.067462
0.059857
0.048631
0.037842
0.074072
0.070836
0.003435
0.006446
0.006043
0.022142
0.099086
0.003086
0.043135
0.056870
0.022131
0.014072
0.040477
0.062294
0.042776
0.043047
0.063293
0.063085
0.015766
0.011045
0.011116
0.015795
0.034789
0.018624
0.017238
0.027668
0.035875
0.037381
0.032607
0.024561
0.013692
0.004688
0.007525
0.012516
0.014314
0.044835
0.022846
0.003127
0.014230
0.025017
0.029057
0.026743
0.019787
0.009956
0.000067
0.008390
0.014103
0.016910
0.034935
0.018775
0.017150
0.027839
0.035727
0.037198
0.032817
0.024487
0.013530
0.004463
0.007563
0.012534
0.014336
0.015972
0.004518
0.022920
0.036706
0.044741
0.044518
0.038166
0.028086
0.015181
0.002806
0.006119
0.011338
0.012320
0.085534
0.023855
0.024414
0.085438
0.040860
0.040234
0.077416
0.077317
0.047255
0.046850
0.065635
0.065422
0.072668
0.033217
0.033628
0.072732
0.022063
0.080487
0.012743
0.037299
0.008574
0.020248
0.031101
0.002861
0.035781
0.012858
0.038770
0.009390
0.040581
0.024834
0.010414
0.015223
0.011454
0.033541
0.015338
0.048277
0.016808
0.006569
0.025798
0.003797
0.031723
0.010580
0.014606
0.025338
0.031728
0.013893
0.009631
0.028128
0.016166
0.054912
0.013245
0.011945
0.012770
0.013838
0.014639
0.037511
0.012056
0.008165
0.020220
0.030663
0.003144
0.041269
0.009354
0.038869
0.035830
0.012911
0.024644
0.010519
0.015395
0.033702
0.012975
0.015214
0.051048
0.006484
0.016746
0.025763
0.003909
0.025260
0.031693
0.031652
0.010623
0.014703
0.013544
0.009646
0.028174
0.016118
0.049820
0.011112
0.019977
0.011988
0.009338
0.017434
0.038282
0.007628
0.020596
0.013989
0.025762
0.008209
0.009495
0.009614
0.038007
0.037961
0.030978
0.011664
0.011539
0.038798
0.010685
0.009098
0.026773
0.017639
0.029244
0.048822
0.013500
0.024394
0.041563
0.029830
0.016935
0.009740
0.017442
0.013660
0.016746
0.019470
0.050361
0.007284
0.058968
0.036873
0.009927
0.042738
0.033910
0.038030
0.032364
0.008505
0.052303
0.026022
0.010631
0.007655
0.016780
0.016847
0.022319
0.028993
0.027836
0.013509
0.049536
0.011655
0.053982
0.009076
0.050142
0.056180
0.017538
0.009105
0.013463
0.026367
0.040931
0.008946
0.014380
0.011856
0.026382
0.047081
0.030584
0.010045
0.008393
0.007083
0.024769
0.027193
0.007861
0.055351
0.039579
0.016467
0.013885
0.021714
0.073727
0.029121
0.009066
0.010120
0.035169
0.009511
0.015664
0.014391
0.021748
0.010448
0.048312
0.029484
0.037066
0.026505
0.022570
0.012725
0.051150
0.060649
0.007743
0.036080
0.014230
0.024530
0.012837
0.014061
0.013892
0.035298
0.020614
0.038983
0.007845
0.020250
0.010830
0.019855
0.058946
0.039009
0.022122
0.055078
0.007872
0.010837
0.019562
0.009453
0.011470
0.020537
0.011902
0.008975
0.017590
0.038661
0.007714
0.021300
0.014282
0.025934
0.008058
0.009527
0.009375
0.038184
0.038779
0.031013
0.011613
0.011357
0.038576
0.010732
0.009392
0.026788
0.017781
0.029962
0.049061
0.012827
0.024587
0.041647
0.029007
0.016979
0.009793
0.017648
0.013813
0.016537
0.019464
0.050102
0.007547
0.058745
0.036847
0.009699
0.043027
0.033488
0.037714
0.032182
0.008775
0.051767
0.026948
0.010516
0.007480
0.016977
0.016644
0.022677
0.029258
0.028055
0.013569
0.049534
0.011615
0.054292
0.009309
0.050387
0.055903
0.017783
0.009309
0.013169
0.026750
0.040663
0.008639
0.014722
0.012059
0.026149
0.047263
0.031284
0.010260
0.008027
0.007266
0.024372
0.027348
0.007975
0.055826
0.039446
0.016661
0.013879
0.022392
0.073640
0.029092
0.008591
0.009735
0.035467
0.009958
0.015770
0.014986
0.021507
0.010228
0.048377
0.029537
0.036287
0.026413
0.022866
0.012755
0.050608
0.060339
0.008038
0.035352
0.013937
0.024892
0.012955
0.014055
0.014380
0.035382
0.020497
0.039319
0.008085
0.020190
0.010739
0.020088
0.059338
0.039534
0.022106
0.055021
0.007767
0.011188
0.019375
0.009512
0.060011
0.070000
0.044377
0.065940
0.071074
0.033046
0.032628
0.071248
0.003120
0.024733
0.025295
0.063328
0.053281
0.053791
0.052206
0.057003
0.057210
0.021786
0.021707
0.047409
0.047459
0.035680
0.002853
0.003453
0.007037
0.016813
0.005859
0.006667
0.066378
0.044803
0.025120
0.058990
0.067136
0.014148
0.016137
0.066579
0.024357
0.023534
0.019976
0.013083
0.003725
0.005695
0.012360
0.013058
0.005348
0.010923
0.033452
0.058936
0.081585
0.023478
0.023310
0.089411
0.018945
0.016284
0.049314
0.051305
0.065763
0.053787
0.021116
0.046447
0.060074
0.033733
0.011315
0.071050
0.071763
0.010859
0.006017
0.006957
0.005932
0.007122
0.015839
0.015692
0.003266
0.002863
0.008354
0.056671
0.006972
0.006604
0.010667
0.002583
0.014019
0.007466
0.007251
0.012922
0.011120
0.009785
0.009822
0.009401
0.009978
0.009596
0.018188
0.017802
0.004424
0.006804
0.004002
0.004248
0.011991
0.017536
0.017708
0.007250
0.009888
0.013098
0.049280
0.006196
0.005721
0.009437
0.009638
0.009556
0.004470
0.003917
0.010575
0.010660
0.022035
0.016060
0.040341
0.017929
0.009266
0.007731
0.013714
0.005595
0.007704
0.003401
0.002720
0.015049
0.009428
0.006889
0.007879
0.007431
0.011992
0.017113
0.024435
0.023843
0.017897
0.020307
0.005476
0.013123
0.003592
0.013079
0.008033
0.007344
0.005107
0.036160
0.010579
0.009750
0.057367
0.031724
0.031824
0.055247
0.012086
0.040202
0.016118
0.013725
0.007462
0.014098
0.003258
0.002385
0.046202
0.051070
0.032353
0.051449
0.013521
0.016901
0.006675
0.015037
0.023242
0.054933
0.040269
0.029137
0.013545
0.012548
0.012325
0.003944
0.011712
0.015954
0.027789
0.029538
0.005250
0.048512
0.029730
0.016567
0.019589
0.019698
0.039662
0.008295
0.006980
0.007966
0.048516
0.014197
0.013832
0.010989
0.011015
0.013821
0.016590
0.019371
0.019594
0.011483
0.010735
0.009910
0.008976
0.007520
0.012287
0.010155
0.009208
0.008297
0.012312
0.006178
0.010159
0.013033
0.007239
0.010966
0.010051
0.005658
0.009237
0.008242
0.011683
0.014369
0.004885
0.003467
0.007786
0.006942
0.019611
0.029590
