# vtk DataFile Version 2.0
Unstructured Grid Example
ASCII
DATASET UNSTRUCTURED_GRID
POINTS 749 float
0.011616 -0.001122 -0.033759 
0.510868 -0.002876 0.032226 
0.202478 0.702789 -0.001252 
0.695826 0.700191 -0.002719 
0.101629 0.703506 -0.002833 
0.100671 1.003596 0.010116 
1.609322 1.012866 0.045214 
1.608910 0.713228 0.001330 
0.906058 0.500114 -0.019774 
0.997026 0.705350 -0.025289 
0.641085 0.496396 0.009154 
0.654643 0.546946 0.006005 
0.891510 0.550198 -0.018477 
1.047475 0.705912 -0.027406 
-0.011305 0.000928 0.146391 
0.489435 0.003010 0.212243 
0.197503 0.697325 0.178668 
0.703977 0.699761 0.177094 
0.098189 0.696775 0.177179 
0.099406 0.996686 0.190108 
1.590533 0.987497 0.225173 
1.591406 0.687074 0.181323 
0.923423 0.500228 0.160286 
1.002874 0.694470 0.154642 
0.644442 0.503715 0.189229 
0.659680 0.552972 0.185866 
0.908015 0.550158 0.161636 
1.052532 0.693653 0.152161 
1.595533 0.843680 0.158498 
1.604579 0.856653 0.068548 
1.600045 0.895215 0.120147 
1.600081 0.805154 0.106772 
0.299686 0.848749 0.141081 
0.300261 0.851355 0.051007 
0.300102 0.895047 0.097633 
0.299967 0.805098 0.094486 
0.136632 -0.001202 -0.017529 
0.261491 -0.001671 -0.000418 
0.386261 -0.002297 0.016446 
0.036375 0.086431 -0.031317 
0.061082 0.174029 -0.028643 
0.085959 0.261742 -0.025900 
0.110484 0.349569 -0.022745 
0.134024 0.437718 -0.018179 
0.156797 0.525998 -0.012803 
0.180020 0.614448 -0.007028 
0.151672 0.703489 -0.001904 
0.101067 0.853600 0.003795 
0.207692 1.003468 0.010833 
0.314302 1.002905 0.010930 
0.420314 1.002303 0.009882 
0.526351 1.001988 0.007435 
0.632543 1.001900 0.003740 
0.739283 1.002447 -0.000451 
0.847106 1.003426 -0.004154 
0.955989 1.004798 -0.005886 
1.065662 1.006535 -0.004235 
1.175894 1.008824 0.001191 
1.285252 1.010214 0.010043 
1.394071 1.011446 0.021195 
1.501990 1.012497 0.033334 
1.609233 0.863185 0.023562 
0.845455 0.703691 -0.016212 
0.622714 0.411847 0.017027 
0.601722 0.328744 0.024094 
0.579528 0.245820 0.028480 
0.557287 0.163234 0.030783 
0.534312 0.080275 0.032077 
0.771465 0.499177 -0.003586 
0.975769 0.602444 -0.026983 
0.943429 0.627118 -0.024072 
0.770325 0.549541 -0.003979 
0.676158 0.622673 0.001075 
1.143469 0.709315 -0.030209 
1.237684 0.710862 -0.028231 
1.331473 0.711914 -0.023708 
1.424624 0.712769 -0.016289 
1.517027 0.713098 -0.007683 
0.113765 0.001030 0.162461 
0.238733 0.001587 0.179410 
0.364157 0.002266 0.196418 
0.013847 0.088363 0.148623 
0.038998 0.175787 0.151339 
0.064159 0.263063 0.154065 
0.089476 0.350194 0.157206 
0.115524 0.437132 0.161675 
0.142920 0.523849 0.167011 
0.169791 0.610515 0.173015 
0.148144 0.696726 0.177991 
0.098914 0.846684 0.183806 
0.206723 0.996780 0.190826 
0.314350 0.997161 0.190964 
0.422688 0.997810 0.189796 
0.530872 0.997969 0.187559 
0.638966 0.998027 0.183806 
0.746487 0.997416 0.179546 
0.852941 0.996361 0.175861 
0.958300 0.994962 0.174119 
1.062912 0.993269 0.175760 
1.166959 0.990997 0.181146 
1.271963 0.989802 0.189960 
1.377356 0.988546 0.201424 
1.483564 0.987638 0.213404 
1.590932 0.837131 0.203516 
0.854510 0.696136 0.163821 
0.615139 0.421601 0.197039 
0.588988 0.338250 0.203910 
0.563103 0.254215 0.208630 
0.538029 0.170328 0.210724 
0.513611 0.086504 0.212098 
0.785909 0.501170 0.176554 
0.988982 0.597926 0.153186 
0.956334 0.623226 0.156123 
0.786279 0.550819 0.176067 
0.680932 0.626943 0.181409 
1.140114 0.690619 0.149874 
1.229190 0.689043 0.151641 
1.318741 0.687994 0.156382 
1.408953 0.687332 0.163592 
1.499896 0.687081 0.172375 
0.000035 -0.000113 0.056311 
0.500132 0.000082 0.122217 
0.199906 0.700056 0.088442 
0.700028 0.699830 0.087073 
0.099829 0.700192 0.087264 
0.100055 1.000129 0.100070 
1.599835 1.000216 0.135065 
1.600117 0.700141 0.091392 
0.914695 0.500108 0.070384 
1.000099 0.699987 0.064135 
0.642541 0.500048 0.100060 
0.656843 0.550067 0.096393 
0.899699 0.550094 0.071593 
1.050128 0.700054 0.061668 
1.596939 0.813773 0.140521 
1.603213 0.822895 0.076909 
1.603200 0.886504 0.086402 
1.596829 0.877478 0.150003 
0.300096 0.882780 0.065286 
0.300215 0.819074 0.063119 
0.299690 0.817376 0.126801 
0.299876 0.880929 0.128947 
1.502875 0.843730 0.148886 
1.410346 0.843861 0.139306 
1.318276 0.844359 0.130561 
1.226302 0.844981 0.123686 
1.134636 0.845722 0.119291 
1.042642 0.846375 0.118391 
0.950922 0.847189 0.120468 
0.858865 0.847987 0.124148 
0.766188 0.848724 0.129209 
0.673250 0.849255 0.134178 
0.579933 0.849400 0.138082 
0.486369 0.849312 0.140612 
0.393015 0.849131 0.141450 
1.507164 0.895075 0.110392 
1.414310 0.895021 0.100391 
1.321431 0.894951 0.091421 
1.228534 0.894922 0.083529 
1.135705 0.894925 0.078622 
1.042854 0.894877 0.076785 
0.950002 0.894874 0.077838 
0.857154 0.894913 0.081001 
0.764299 0.894934 0.085472 
0.671436 0.894984 0.090025 
0.578570 0.895003 0.093816 
0.485746 0.895029 0.096414 
0.392791 0.895003 0.097690 
1.511519 0.856406 0.058866 
1.418351 0.856172 0.049278 
1.324646 0.855563 0.040580 
1.231063 0.855020 0.033646 
1.136882 0.854113 0.029323 
1.043059 0.853349 0.028418 
0.949057 0.852584 0.030330 
0.855482 0.851872 0.034148 
0.762393 0.851101 0.039249 
0.669666 0.850711 0.044288 
0.577263 0.850470 0.048146 
0.484919 0.850668 0.050605 
0.392706 0.850975 0.051445 
1.507208 0.805091 0.097263 
1.414414 0.805035 0.087950 
1.321545 0.805032 0.079576 
1.228528 0.804835 0.073306 
1.135941 0.805077 0.069653 
1.042884 0.804917 0.069753 
0.950037 0.804892 0.072642 
0.857157 0.804906 0.077226 
0.764347 0.804976 0.083096 
0.671356 0.804973 0.088726 
0.578522 0.805010 0.092782 
0.485782 0.804981 0.095156 
0.392811 0.805024 0.095603 
1.595782 0.946343 0.168600 
1.596177 0.742504 0.138733 
1.604069 0.754152 0.058117 
1.604031 0.957026 0.088689 
1.607019 0.794749 0.033848 
1.593213 0.774549 0.173750 
1.607287 0.924614 0.052023 
1.592838 0.905728 0.192980 
1.605808 0.827458 0.051410 
1.594344 0.810890 0.166350 
1.605967 0.888786 0.059490 
1.594200 0.872918 0.175533 
1.596821 0.908287 0.153809 
1.597013 0.783051 0.135419 
1.603206 0.792053 0.072950 
1.603468 0.916496 0.088631 
1.600100 0.759331 0.100033 
1.600035 0.940168 0.125861 
0.344264 0.832144 0.123512 
1.552943 0.828903 0.134061 
0.718817 0.826892 0.108770 
0.811664 0.826825 0.103365 
0.904237 0.826097 0.098440 
0.625712 0.827242 0.113558 
1.181376 0.825151 0.096415 
0.439478 0.827170 0.118335 
0.996640 0.825754 0.094955 
0.532532 0.827233 0.116745 
1.089014 0.825429 0.094162 
1.273816 0.824859 0.101582 
1.366198 0.824556 0.109181 
1.458759 0.824383 0.118365 
0.333164 0.816954 0.107329 
1.565538 0.815519 0.117254 
0.344303 0.866546 0.124689 
1.552916 0.863472 0.139215 
0.811559 0.871662 0.104949 
0.718752 0.871974 0.109698 
0.904147 0.871297 0.100843 
0.625767 0.872133 0.114003 
0.996386 0.870917 0.098159 
0.532640 0.872066 0.117267 
0.439548 0.872117 0.119127 
1.181231 0.870245 0.101235 
1.088822 0.870497 0.098217 
1.273525 0.869750 0.107006 
1.366136 0.869617 0.115313 
1.458664 0.869465 0.124758 
0.333338 0.882591 0.109472 
1.565504 0.881333 0.127026 
0.299990 0.850002 0.096174 
0.299912 0.832049 0.102812 
0.300113 0.843154 0.077934 
0.299863 0.856467 0.114366 
0.300059 0.868256 0.089924 
1.558334 0.836823 0.078586 
0.344512 0.822802 0.078205 
0.716955 0.827726 0.063905 
0.809853 0.828039 0.058360 
0.902967 0.828695 0.053618 
0.624206 0.827784 0.068655 
1.089714 0.829505 0.048843 
0.531697 0.827725 0.071725 
0.996236 0.828983 0.049885 
1.183200 0.829856 0.051410 
0.439113 0.827924 0.073354 
1.276349 0.830141 0.056691 
1.369678 0.830466 0.064217 
1.462825 0.830737 0.073339 
1.567911 0.818990 0.093037 
0.333454 0.838797 0.062953 
0.344468 0.868018 0.069127 
1.557312 0.880368 0.095754 
0.716982 0.872937 0.064718 
0.809891 0.873175 0.059958 
0.903005 0.873480 0.055837 
0.624224 0.872844 0.069062 
1.183066 0.874638 0.056250 
0.996448 0.873840 0.053148 
1.089766 0.874293 0.053224 
0.531603 0.872896 0.072285 
0.439044 0.872988 0.074165 
1.276498 0.875055 0.062099 
1.369640 0.875339 0.070331 
1.462845 0.875625 0.079743 
0.333370 0.883217 0.085198 
1.569928 0.866943 0.079023 
0.422048 0.594626 0.004360 
0.354173 0.360061 0.003849 
0.381875 0.794897 0.005177 
0.527675 0.716405 0.004000 
0.539807 0.553493 0.007450 
1.035669 0.855106 -0.016185 
0.324589 0.682589 0.002341 
0.443243 0.469941 0.007904 
0.300695 0.494558 -0.001733 
0.258588 0.187293 -0.003857 
0.616088 0.836980 0.001253 
0.267286 0.777451 0.003099 
0.431815 0.699698 0.004279 
1.178282 0.856537 -0.014168 
0.412676 0.205822 0.014033 
1.374390 0.858486 -0.000691 
0.508272 0.839993 0.004894 
0.496255 0.635011 0.005105 
0.484341 0.337985 0.015854 
0.590583 0.633126 0.004039 
0.318820 0.588559 0.000127 
0.243571 0.360230 -0.007424 
0.764395 0.834722 -0.006372 
0.549299 0.454215 0.012284 
1.099914 0.803841 -0.020880 
0.715840 0.525807 0.001344 
0.900949 0.910304 -0.009967 
0.933253 0.784622 -0.017969 
0.827257 0.527787 -0.010593 
0.319098 0.889743 0.007240 
0.266871 0.640794 -0.001205 
0.466710 0.526240 0.007113 
0.378747 0.510325 0.003866 
0.398566 0.888508 0.007289 
0.595074 0.537146 0.008170 
1.019295 0.774997 -0.022008 
0.624337 0.747044 0.000375 
0.986244 0.653069 -0.026095 
0.185798 0.105612 -0.012428 
0.190641 0.801177 0.002740 
1.281805 0.802050 -0.015179 
1.474879 0.805160 0.001423 
0.189137 0.281277 -0.013525 
0.355028 0.113085 0.009745 
0.386781 0.648562 0.003261 
0.929952 0.572831 -0.022442 
0.219645 0.450427 -0.008846 
0.476956 0.758849 0.004742 
0.267397 0.710963 0.001208 
0.369417 0.438151 0.004058 
0.200272 0.899185 0.006825 
0.299988 0.289883 -0.000318 
1.104097 0.919729 -0.010378 
1.277361 0.902557 -0.003214 
0.266253 0.564805 -0.003293 
1.467939 0.916560 0.016501 
0.569414 0.910212 0.004271 
0.468170 0.144340 0.022240 
0.375646 0.722070 0.003831 
0.492302 0.244285 0.020846 
0.450924 0.064134 0.022965 
0.298125 0.413244 -0.001875 
0.688058 0.905756 -0.000763 
0.617661 0.584979 0.005152 
0.591633 0.482044 0.011219 
0.545405 0.377862 0.017326 
0.553308 0.780789 0.003336 
0.482498 0.576819 0.006139 
0.692162 0.793038 -0.002939 
0.427387 0.386326 0.009601 
[...]
POINT_DATA 749
SCALARS u float 1
LOOKUP_TABLE default
0.078536
0.075043
0.008652
0.010960
0.010539
0.023651
0.105371
0.035188
0.047716
0.057208
0.021978
0.015800
0.044710
0.061893
0.077990
0.074895
0.008563
0.010842
0.010228
0.023425
0.105136
0.034252
0.047138
0.057413
0.022149
0.015497
0.044056
0.063027
0.054395
0.054736
0.066286
0.036878
0.013669
0.013552
0.016784
0.009865
0.046330
0.025548
0.044114
0.073296
0.067559
0.061857
0.055074
0.044627
0.031946
0.019466
0.009481
0.011739
0.025038
0.024866
0.022444
0.017612
0.011563
0.009575
0.013440
0.016889
0.017387
0.021901
0.034750
0.056059
0.080807
0.062740
0.037899
0.039735
0.055780
0.065748
0.071342
0.074515
0.018295
0.061380
0.055061
0.020157
0.007742
0.069618
0.067192
0.060049
0.048754
0.038471
0.045852
0.025050
0.043547
0.073242
0.067522
0.061818
0.055203
0.045366
0.032624
0.019649
0.009380
0.011353
0.024851
0.024901
0.022242
0.017938
0.011830
0.009848
0.013734
0.017216
0.017749
0.022243
0.034546
0.056488
0.080935
0.062221
0.037893
0.039938
0.055401
0.066209
0.071222
0.074378
0.017309
0.060826
0.054454
0.019110
0.007402
0.069458
0.067462
0.059857
0.048631
0.037842
0.074072
0.070836
0.003435
0.006446
0.006043
0.022142
0.099086
0.003086
0.043135
0.056870
0.022131
0.014072
0.040477
0.062294
0.042776
0.043047
0.063293
0.063085
0.015766
0.011045
0.011116
0.015795
0.034789
0.018624
0.017238
0.027668
0.035875
0.037381
0.032607
0.024561
0.013692
0.004688
0.007525
0.012516
0.014314
0.044835
0.022846
0.003127
0.014230
0.025017
0.029057
0.026743
0.019787
0.009956
0.000067
0.008390
0.014103
0.016910
0.034935
0.018775
0.017150
0.027839
0.035727
0.037198
0.032817
0.024487
0.013530
0.004463
0.007563
0.012534
0.014336
0.015972
0.004518
0.022920
0.036706
0.044741
0.044518
0.038166
0.028086
0.015181
0.002806
0.006119
0.011338
0.012320
0.085534
0.023855
0.024414
0.085438
0.040860
0.040234
0.077416
0.077317
0.047255
0.046850
0.065635
0.065422
0.072668
0.033217
0.033628
0.072732
0.022063
0.080487
0.012743
0.037299
0.008574
0.020248
0.031101
0.002861
0.035781
0.012858
0.038770
0.009390
0.040581
0.024834
0.010414
0.015223
0.011454
0.033541
0.015338
0.048277
0.016808
0.006569
0.025798
0.003797
0.031723
0.010580
0.014606
0.025338
0.031728
0.013893
0.009631
0.028128
0.016166
0.054912
0.013245
0.011945
0.012770
0.013838
0.014639
0.037511
0.012056
0.008165
0.020220
0.030663
0.003144
0.041269
0.009354
0.038869
0.035830
0.012911
0.024644
0.010519
0.015395
0.033702
0.012975
0.015214
0.051048
0.006484
0.016746
0.025763
0.003909
0.025260
0.031693
0.031652
0.010623
0.014703
0.013544
0.009646
0.028174
0.016118
0.049820
0.011112
0.019977
0.011988
0.009338
0.017434
0.038282
0.007628
0.020596
0.013989
0.025762
0.008209
0.009495
0.009614
0.038007
0.037961
0.030978
0.011664
0.011539
0.038798
0.010685
0.009098
0.026773
0.017639
0.029244
0.048822
0.013500
0.024394
0.041563
0.029830
0.016935
0.009740
0.017442
0.013660
0.016746
0.019470
0.050361
0.007284
0.058968
0.036873
0.009927
0.042738
0.033910
0.038030
0.032364
0.008505
0.052303
0.026022
0.010631
0.007655
0.016780
0.016847
0.022319
0.028993
0.027836
0.013509
0.049536
0.011655
0.053982
0.009076
0.050142
0.056180
0.017538
0.009105
0.013463
0.026367
0.040931
0.008946
0.014380
0.011856
0.026382
0.047081
0.030584
0.010045
0.008393
0.007083
0.024769
0.027193
0.007861
0.055351
0.039579
0.016467
0.013885
0.021714
0.073727
0.029121
0.009066
0.010120
0.035169
0.009511
0.015664
0.014391
0.021748
0.010448
0.048312
0.029484
0.037066
0.026505
0.022570
0.012725
0.051150
0.060649
0.007743
0.036080
0.014230
0.024530
0.012837
0.014061
0.013892
0.035298
0.020614
0.038983
0.007845
0.020250
0.010830
0.019855
0.058946
0.039009
0.022122
0.055078
0.007872
0.010837
0.019562
0.009453
0.011470
0.020537
0.011902
0.008975
0.017590
0.038661
0.007714
0.021300
0.014282
0.025934
0.008058
0.009527
0.009375
0.038184
0.038779
0.031013
0.011613
0.011357
0.038576
0.010732
0.009392
0.026788
0.017781
0.029962
0.049061
0.012827
0.024587
0.041647
0.029007
0.016979
0.009793
0.017648
0.013813
0.016537
0.019464
0.050102
0.007547
0.058745
0.036847
0.009699
0.043027
0.033488
0.037714
0.032182
0.008775
0.051767
0.026948
0.010516
0.007480
0.016977
0.016644
0.022677
0.029258
0.028055
0.013569
0.049534
0.011615
0.054292
0.009309
0.050387
0.055903
0.017783
0.009309
0.013169
0.026750
0.040663
0.008639
0.014722
0.012059
0.026149
0.047263
0.031284
0.010260
0.008027
0.007266
0.024372
0.027348
0.007975
0.055826
0.039446
0.016661
0.013879
0.022392
0.073640
0.029092
0.008591
0.009735
0.035467
0.009958
0.015770
0.014986
0.021507
0.010228
0.048377
0.029537
0.036287
0.026413
0.022866
0.012755
0.050608
0.060339
0.008038
0.035352
0.013937
0.024892
0.012955
0.014055
0.014380
0.035382
0.020497
0.039319
0.008085
0.020190
0.010739
0.020088
0.059338
0.039534
0.022106
0.055021
0.007767
0.011188
0.019375
0.009512
0.060011
0.070000
0.044377
0.065940
0.071074
0.033046
0.032628
0.071248
0.003120
0.024733
0.025295
0.063328
0.053281
0.053791
0.052206
0.057003
0.057210
0.021786
0.021707
0.047409
0.047459
0.035680
0.002853
0.003453
0.007037
0.016813
0.005859
0.006667
0.066378
0.044803
0.025120
0.058990
0.067136
0.014148
0.016137
0.066579
0.024357
0.023534
0.019976
0.013083
0.003725
0.005695
0.012360
0.013058
0.005348
0.010923
0.033452
0.058936
0.081585
0.023478
0.023310
0.089411
0.018945
0.016284
0.049314
0.051305
0.065763
0.053787
0.021116
0.046447
0.060074
0.033733
0.011315
0.071050
0.071763
0.010859
0.006017
0.006957
0.005932
0.007122
0.015839
0.015692
0.003266
0.002863
0.008354
0.056671
0.006972
0.006604
0.010667
0.002583
0.014019
0.007466
0.007251
0.012922
0.011120
0.009785
0.009822
0.009401
0.009978
0.009596
0.018188
0.017802
0.004424
0.006804
0.004002
0.004248
0.011991
0.017536
0.017708
0.007250
0.009888
0.013098
0.049280
0.006196
0.005721
0.009437
0.009638
0.009556
0.004470
0.003917
0.010575
0.010660
0.022035
0.016060
0.040341
0.017929
0.009266
0.007731
0.013714
0.005595
0.007704
0.003401
0.002720
0.015049
0.009428
0.006889
0.007879
0.007431
0.011992
0.017113
0.024435
0.023843
0.017897
0.020307
0.005476
0.013123
0.003592
0.013079
0.008033
0.007344
0.005107
0.036160
0.010579
0.009750
0.057367
0.031724
0.031824
0.055247
0.012086
0.040202
0.016118
0.013725
0.007462
0.014098
0.003258
0.002385
0.046202
0.051070
0.032353
0.051449
0.013521
0.016901
0.006675
0.015037
0.023242
0.054933
0.040269
0.029137
0.013545
0.012548
0.012325
0.003944
0.011712
0.015954
0.027789
0.029538
0.005250
0.048512
0.029730
0.016567
0.019589
0.019698
0.039662
0.008295
0.006980
0.007966
0.048516
0.014197
0.013832
0.010989
0.011015
0.013821
0.016590
0.019371
0.019594
0.011483
0.010735
0.009910
0.008976
0.007520
0.012287
0.010155
0.009208
0.008297
0.012312
0.006178
0.010159
0.013033
0.007239
0.010966
0.010051
0.005658
0.009237
0.008242
0.011683
0.014369
0.004885
0.003467
0.007786
0.006942
0.019611
0.029590
