# vtk DataFile Version 2.0
Unstructured Grid Example
ASCII
DATASET UNSTRUCTURED_GRID
POINTS 749 float
-0.008813 0.000851 0.025611 
0.491755 0.002182 -0.024448 
0.198120 0.697884 0.000950 
0.703166 0.699855 0.002063 
0.098764 0.697340 0.002149 
0.099491 0.997272 -0.007674 
1.592928 0.990239 -0.034301 
1.593241 0.689965 -0.001009 
0.921783 0.499914 0.015001 
1.002256 0.695941 0.019185 
0.644201 0.502734 -0.006944 
0.659039 0.552317 -0.004556 
0.906441 0.549849 0.014017 
1.051915 0.695515 0.020791 
0.008576 -0.000704 0.205497 
0.508015 -0.002283 0.155539 
0.201894 0.702030 0.181010 
0.696983 0.700181 0.182205 
0.101374 0.702447 0.182140 
0.100450 1.002514 0.172332 
1.607182 1.009486 0.145731 
1.606520 0.709806 0.178997 
0.908610 0.499827 0.194956 
0.997820 0.704195 0.199237 
0.641655 0.497182 0.172999 
0.655218 0.547746 0.175550 
0.893919 0.549880 0.193932 
1.048079 0.704815 0.201120 
1.603389 0.854795 0.117173 
1.596526 0.844953 0.027135 
1.599966 0.894837 0.067129 
1.599938 0.804883 0.077276 
0.300239 0.850949 0.130386 
0.299802 0.848972 0.040443 
0.299923 0.894964 0.084209 
0.300025 0.804925 0.086597 
0.116176 0.000912 0.013298 
0.241282 0.001268 0.000317 
0.366457 0.001743 -0.012476 
0.016370 0.088311 0.023758 
0.041593 0.175737 0.021729 
0.066686 0.263075 0.019649 
0.092047 0.350327 0.017255 
0.118154 0.437335 0.013791 
0.144843 0.524243 0.009713 
0.171192 0.611022 0.005331 
0.148731 0.697353 0.001444 
0.099191 0.847269 -0.002879 
0.206726 0.997369 -0.008218 
0.314273 0.997796 -0.008292 
0.422274 0.998253 -0.007497 
0.530256 0.998491 -0.005641 
0.638120 0.998559 -0.002837 
0.745568 0.998144 0.000342 
0.852195 0.997401 0.003151 
0.958019 0.996360 0.004466 
1.063241 0.995042 0.003213 
1.168041 0.993306 -0.000904 
1.273503 0.992252 -0.007619 
1.379374 0.991317 -0.016079 
1.485928 0.990520 -0.025288 
1.592996 0.839997 -0.017875 
0.853448 0.697200 0.012299 
0.616266 0.420323 -0.012917 
0.590319 0.336815 -0.018279 
0.565284 0.253171 -0.021606 
0.540285 0.169271 -0.023353 
0.515842 0.085653 -0.024335 
0.784591 0.500625 0.002720 
0.987606 0.598146 0.020470 
0.954985 0.623393 0.018262 
0.784828 0.550348 0.003018 
0.680403 0.626765 -0.000816 
1.140300 0.692933 0.022917 
1.230033 0.691759 0.021417 
1.320090 0.690962 0.017986 
1.410630 0.690313 0.012357 
1.501738 0.690063 0.005828 
0.133523 -0.000781 0.193306 
0.258547 -0.001204 0.180447 
0.383226 -0.001719 0.167544 
0.033461 0.086845 0.203804 
0.058346 0.174403 0.201743 
0.083224 0.262073 0.199675 
0.107984 0.349853 0.197293 
0.132189 0.437779 0.193902 
0.155371 0.525873 0.189854 
0.178952 0.614006 0.185299 
0.151408 0.702484 0.181524 
0.100824 0.852516 0.177112 
0.207461 1.002443 0.171787 
0.314237 1.002154 0.171683 
0.420473 1.001662 0.172569 
0.526826 1.001541 0.174265 
0.633248 1.001497 0.177113 
0.740103 1.001960 0.180344 
0.847769 1.002760 0.183140 
0.956265 1.003822 0.184462 
1.065328 1.005106 0.183216 
1.174819 1.006830 0.179131 
1.283585 1.007737 0.172444 
1.392055 1.008690 0.163747 
1.499908 1.009378 0.154659 
1.606879 0.859763 0.162160 
0.846578 0.702931 0.192274 
0.622013 0.412923 0.167074 
0.599980 0.329603 0.161861 
0.577745 0.246802 0.158280 
0.554894 0.163889 0.156692 
0.531547 0.080928 0.155649 
0.773633 0.499112 0.182614 
0.977583 0.601574 0.200342 
0.945194 0.626346 0.198114 
0.772724 0.549379 0.182984 
0.676781 0.623526 0.178931 
1.142844 0.707117 0.202854 
1.236477 0.708312 0.201514 
1.329748 0.709108 0.197918 
1.422519 0.709610 0.192448 
1.514734 0.709801 0.185784 
-0.000026 0.000086 0.115558 
0.499900 -0.000062 0.065559 
0.200072 0.699958 0.091182 
0.699979 0.700129 0.092220 
0.100130 0.699854 0.092076 
0.099958 0.999902 0.082361 
1.600125 0.999836 0.055812 
1.599911 0.699893 0.088944 
0.915231 0.499918 0.104881 
0.999925 0.700010 0.109622 
0.643097 0.499963 0.082368 
0.657370 0.549949 0.085150 
0.900229 0.549929 0.103964 
1.049903 0.699959 0.111494 
1.602322 0.821523 0.107633 
1.597562 0.814603 0.043972 
1.597572 0.878266 0.036770 
1.602406 0.885113 0.100439 
0.299927 0.881091 0.052790 
0.299837 0.817502 0.054434 
0.300235 0.818791 0.118041 
0.300094 0.882496 0.116413 
1.510381 0.854757 0.124466 
1.417274 0.854657 0.131733 
1.323820 0.854280 0.138368 
1.230293 0.853808 0.143583 
1.136532 0.853245 0.146917 
1.043021 0.852750 0.147600 
0.949301 0.852133 0.146024 
0.855836 0.851527 0.143233 
0.762842 0.850968 0.139393 
0.670047 0.850565 0.135623 
0.577539 0.850455 0.132662 
0.485217 0.850522 0.130742 
0.392738 0.850659 0.130107 
1.507127 0.894943 0.074530 
1.414267 0.894984 0.082117 
1.321426 0.895037 0.088922 
1.228600 0.895059 0.094909 
1.135721 0.895057 0.098632 
1.042860 0.895093 0.100025 
0.949998 0.895096 0.099227 
0.857134 0.895066 0.096827 
0.764276 0.895050 0.093435 
0.671423 0.895012 0.089981 
0.578572 0.894998 0.087105 
0.485690 0.894978 0.085134 
0.392907 0.894998 0.084166 
1.503823 0.845140 0.034481 
1.411202 0.845318 0.041754 
1.318988 0.845779 0.048353 
1.226681 0.846192 0.053614 
1.134829 0.846880 0.056893 
1.042704 0.847459 0.057580 
0.950716 0.848039 0.056129 
0.858403 0.848580 0.053233 
0.765722 0.849165 0.049363 
0.672766 0.849461 0.045540 
0.579564 0.849643 0.042613 
0.486318 0.849493 0.040748 
0.392972 0.849261 0.040110 
1.507094 0.804931 0.084490 
1.414188 0.804974 0.091555 
1.321341 0.804975 0.097908 
1.228604 0.805125 0.102664 
1.135542 0.804941 0.105436 
1.042837 0.805063 0.105360 
0.949972 0.805082 0.103169 
0.857132 0.805071 0.099691 
0.764239 0.805018 0.095238 
0.671483 0.805020 0.090966 
0.578609 0.804992 0.087889 
0.485663 0.805014 0.086088 
0.392892 0.804982 0.085749 
1.603200 0.955969 0.101273 
1.602900 0.752492 0.123931 
1.596913 0.743655 0.043286 
1.596942 0.946886 0.021480 
1.594675 0.776714 0.009548 
1.605149 0.792038 0.149515 
1.594472 0.906573 -0.005810 
1.605433 0.922924 0.134927 
1.595593 0.812620 0.018182 
1.604291 0.825189 0.133171 
1.595474 0.873776 0.010290 
1.604400 0.887095 0.126205 
1.602412 0.915678 0.096428 
1.602266 0.790706 0.110525 
1.597568 0.783876 0.047954 
1.597369 0.907711 0.031447 
1.599924 0.759089 0.082389 
1.599973 0.939605 0.061486 
0.344545 0.833210 0.113379 
1.557574 0.835668 0.105376 
0.717129 0.827961 0.115330 
0.809994 0.828012 0.119430 
0.903067 0.828564 0.123166 
0.624460 0.827695 0.111697 
1.182725 0.829282 0.124703 
0.439140 0.827751 0.108073 
0.996268 0.828824 0.125811 
0.531848 0.827702 0.109280 
1.089492 0.829071 0.126412 
1.275898 0.829504 0.120783 
1.369116 0.829733 0.115018 
1.462197 0.829865 0.108051 
0.333481 0.817255 0.098177 
1.567504 0.818343 0.090648 
0.344515 0.867784 0.112486 
1.557595 0.870116 0.101466 
0.810074 0.873136 0.118229 
0.717178 0.872899 0.114625 
0.903135 0.873413 0.121344 
0.624418 0.872779 0.111360 
0.996461 0.873701 0.123380 
0.531766 0.872829 0.108884 
0.439087 0.872790 0.107473 
1.182835 0.874211 0.121046 
1.089637 0.874020 0.123336 
1.276119 0.874586 0.116668 
1.369163 0.874687 0.110366 
1.462269 0.874803 0.103201 
0.333349 0.883091 0.096551 
1.567529 0.884045 0.083235 
0.300008 0.849931 0.085580 
0.300067 0.832315 0.093263 
0.299914 0.842193 0.067768 
0.300104 0.857341 0.103335 
0.299955 0.867805 0.078224 
1.553484 0.829660 0.049857 
0.344357 0.821831 0.068612 
0.718542 0.827329 0.070227 
0.811368 0.827091 0.074434 
0.904030 0.826594 0.078031 
0.625602 0.827285 0.066624 
1.088961 0.825979 0.081654 
0.532481 0.827329 0.064295 
0.996575 0.826375 0.080863 
1.181341 0.825712 0.079707 
0.439417 0.827179 0.063059 
1.273977 0.825497 0.075700 
1.366476 0.825250 0.069991 
1.459113 0.825045 0.063070 
1.565703 0.815710 0.066372 
0.333261 0.837175 0.052704 
0.344390 0.866668 0.057033 
1.554260 0.875764 0.055298 
0.718521 0.872169 0.069611 
0.811339 0.871988 0.073221 
0.904002 0.871757 0.076348 
0.625589 0.872239 0.066315 
1.181442 0.870878 0.076035 
0.996414 0.871483 0.078388 
1.088921 0.871140 0.078330 
0.532553 0.872199 0.063870 
0.439469 0.872130 0.062444 
1.273864 0.870562 0.071598 
1.366505 0.870347 0.065353 
1.459098 0.870129 0.058212 
0.333325 0.882615 0.072320 
1.564174 0.858470 0.040513 
0.417706 0.595787 -0.003308 
0.340077 0.363351 -0.002920 
0.381297 0.791945 -0.003927 
0.530032 0.717278 -0.003034 
0.539408 0.558251 -0.005652 
1.036413 0.843840 0.012278 
0.321045 0.679810 -0.001776 
0.435426 0.474070 -0.005996 
0.289931 0.494356 0.001315 
0.239341 0.190148 0.002926 
0.621966 0.835055 -0.000951 
0.264911 0.772726 -0.002351 
0.430522 0.698784 -0.003246 
1.172076 0.840262 0.010748 
0.395594 0.210413 -0.010646 
1.360807 0.837798 0.000524 
0.511333 0.838097 -0.003713 
0.495617 0.637058 -0.003873 
0.472586 0.344873 -0.012028 
0.593611 0.636788 -0.003064 
0.311628 0.587476 -0.000096 
0.226631 0.361319 0.005632 
0.771983 0.830734 0.004834 
0.544953 0.462062 -0.009319 
1.099116 0.790579 0.015841 
0.725868 0.529041 -0.001019 
0.904881 0.902687 0.007561 
0.938881 0.775967 0.013632 
0.842164 0.527902 0.008036 
0.319015 0.885123 -0.005493 
0.260261 0.637258 0.000914 
0.462035 0.530279 -0.005396 
0.370323 0.511805 -0.002933 
0.399601 0.884763 -0.005530 
0.596613 0.542953 -0.006198 
1.022488 0.764303 0.016696 
0.630116 0.747382 -0.000284 
0.994836 0.646377 0.019796 
0.166089 0.107542 0.009428 
0.188275 0.795328 -0.002079 
1.272403 0.782878 0.011515 
1.459911 0.782680 -0.001080 
0.170255 0.283018 0.010260 
0.335953 0.116630 -0.007393 
0.383155 0.648071 -0.002474 
0.943698 0.570957 0.017025 
0.205854 0.449432 0.006711 
0.478313 0.757893 -0.003597 
0.263569 0.706682 -0.000917 
0.358387 0.440901 -0.003078 
0.199039 0.893184 -0.005177 
0.282350 0.292581 0.000241 
1.099649 0.906132 0.007873 
1.266225 0.884125 0.002438 
0.257438 0.562459 0.002498 
1.452135 0.894696 -0.012518 
0.574223 0.907497 -0.003240 
0.450805 0.150092 -0.016872 
0.373662 0.720236 -0.002907 
0.477366 0.250727 -0.015814 
0.431835 0.069008 -0.017422 
0.284522 0.414176 0.001422 
0.694377 0.902392 0.000579 
0.620954 0.589779 -0.003908 
0.590753 0.489438 -0.008511 
0.536780 0.386169 -0.013144 
0.557369 0.780250 -0.002531 
0.480140 0.580009 -0.004657 
0.699790 0.790801 0.002230 
[...]
POINT_DATA 749
SCALARS u float 1
LOOKUP_TABLE default
0.078536
0.075043
0.008652
0.010960
0.010539
0.023651
0.105371
0.035188
0.047716
0.057208
0.021978
0.015800
0.044710
0.061893
0.077990
0.074895
0.008563
0.010842
0.010228
0.023425
0.105136
0.034252
0.047138
0.057413
0.022149
0.015497
0.044056
0.063027
0.054395
0.054736
0.066286
0.036878
0.013669
0.013552
0.016784
0.009865
0.046330
0.025548
0.044114
0.073296
0.067559
0.061857
0.055074
0.044627
0.031946
0.019466
0.009481
0.011739
0.025038
0.024866
0.022444
0.017612
0.011563
0.009575
0.013440
0.016889
0.017387
0.021901
0.034750
0.056059
0.080807
0.062740
0.037899
0.039735
0.055780
0.065748
0.071342
0.074515
0.018295
0.061380
0.055061
0.020157
0.007742
0.069618
0.067192
0.060049
0.048754
0.038471
0.045852
0.025050
0.043547
0.073242
0.067522
0.061818
0.055203
0.045366
0.032624
0.019649
0.009380
0.011353
0.024851
0.024901
0.022242
0.017938
0.011830
0.009848
0.013734
0.017216
0.017749
0.022243
0.034546
0.056488
0.080935
0.062221
0.037893
0.039938
0.055401
0.066209
0.071222
0.074378
0.017309
0.060826
0.054454
0.019110
0.007402
0.069458
0.067462
0.059857
0.048631
0.037842
0.074072
0.070836
0.003435
0.006446
0.006043
0.022142
0.099086
0.003086
0.043135
0.056870
0.022131
0.014072
0.040477
0.062294
0.042776
0.043047
0.063293
0.063085
0.015766
0.011045
0.011116
0.015795
0.034789
0.018624
0.017238
0.027668
0.035875
0.037381
0.032607
0.024561
0.013692
0.004688
0.007525
0.012516
0.014314
0.044835
0.022846
0.003127
0.014230
0.025017
0.029057
0.026743
0.019787
0.009956
0.000067
0.008390
0.014103
0.016910
0.034935
0.018775
0.017150
0.027839
0.035727
0.037198
0.032817
0.024487
0.013530
0.004463
0.007563
0.012534
0.014336
0.015972
0.004518
0.022920
0.036706
0.044741
0.044518
0.038166
0.028086
0.015181
0.002806
0.006119
0.011338
0.012320
0.085534
0.023855
0.024414
0.085438
0.040860
0.040234
0.077416
0.077317
0.047255
0.046850
0.065635
0.065422
0.072668
0.033217
0.033628
0.072732
0.022063
0.080487
0.012743
0.037299
0.008574
0.020248
0.031101
0.002861
0.035781
0.012858
0.038770
0.009390
0.040581
0.024834
0.010414
0.015223
0.011454
0.033541
0.015338
0.048277
0.016808
0.006569
0.025798
0.003797
0.031723
0.010580
0.014606
0.025338
0.031728
0.013893
0.009631
0.028128
0.016166
0.054912
0.013245
0.011945
0.012770
0.013838
0.014639
0.037511
0.012056
0.008165
0.020220
0.030663
0.003144
0.041269
0.009354
0.038869
0.035830
0.012911
0.024644
0.010519
0.015395
0.033702
0.012975
0.015214
0.051048
0.006484
0.016746
0.025763
0.003909
0.025260
0.031693
0.031652
0.010623
0.014703
0.013544
0.009646
0.028174
0.016118
0.049820
0.011112
0.019977
0.011988
0.009338
0.017434
0.038282
0.007628
0.020596
0.013989
0.025762
0.008209
0.009495
0.009614
0.038007
0.037961
0.030978
0.011664
0.011539
0.038798
0.010685
0.009098
0.026773
0.017639
0.029244
0.048822
0.013500
0.024394
0.041563
0.029830
0.016935
0.009740
0.017442
0.013660
0.016746
0.019470
0.050361
0.007284
0.058968
0.036873
0.009927
0.042738
0.033910
0.038030
0.032364
0.008505
0.052303
0.026022
0.010631
0.007655
0.016780
0.016847
0.022319
0.028993
0.027836
0.013509
0.049536
0.011655
0.053982
0.009076
0.050142
0.056180
0.017538
0.009105
0.013463
0.026367
0.040931
0.008946
0.014380
0.011856
0.026382
0.047081
0.030584
0.010045
0.008393
0.007083
0.024769
0.027193
0.007861
0.055351
0.039579
0.016467
0.013885
0.021714
0.073727
0.029121
0.009066
0.010120
0.035169
0.009511
0.015664
0.014391
0.021748
0.010448
0.048312
0.029484
0.037066
0.026505
0.022570
0.012725
0.051150
0.060649
0.007743
0.036080
0.014230
0.024530
0.012837
0.014061
0.013892
0.035298
0.020614
0.038983
0.007845
0.020250
0.010830
0.019855
0.058946
0.039009
0.022122
0.055078
0.007872
0.010837
0.019562
0.009453
0.011470
0.020537
0.011902
0.008975
0.017590
0.038661
0.007714
0.021300
0.014282
0.025934
0.008058
0.009527
0.009375
0.038184
0.038779
0.031013
0.011613
0.011357
0.038576
0.010732
0.009392
0.026788
0.017781
0.029962
0.049061
0.012827
0.024587
0.041647
0.029007
0.016979
0.009793
0.017648
0.013813
0.016537
0.019464
0.050102
0.007547
0.058745
0.036847
0.009699
0.043027
0.033488
0.037714
0.032182
0.008775
0.051767
0.026948
0.010516
0.007480
0.016977
0.016644
0.022677
0.029258
0.028055
0.013569
0.049534
0.011615
0.054292
0.009309
0.050387
0.055903
0.017783
0.009309
0.013169
0.026750
0.040663
0.008639
0.014722
0.012059
0.026149
0.047263
0.031284
0.010260
0.008027
0.007266
0.024372
0.027348
0.007975
0.055826
0.039446
0.016661
0.013879
0.022392
0.073640
0.029092
0.008591
0.009735
0.035467
0.009958
0.015770
0.014986
0.021507
0.010228
0.048377
0.029537
0.036287
0.026413
0.022866
0.012755
0.050608
0.060339
0.008038
0.035352
0.013937
0.024892
0.012955
0.014055
0.014380
0.035382
0.020497
0.039319
0.008085
0.020190
0.010739
0.020088
0.059338
0.039534
0.022106
0.055021
0.007767
0.011188
0.019375
0.009512
0.060011
0.070000
0.044377
0.065940
0.071074
0.033046
0.032628
0.071248
0.003120
0.024733
0.025295
0.063328
0.053281
0.053791
0.052206
0.057003
0.057210
0.021786
0.021707
0.047409
0.047459
0.035680
0.002853
0.003453
0.007037
0.016813
0.005859
0.006667
0.066378
0.044803
0.025120
0.058990
0.067136
0.014148
0.016137
0.066579
0.024357
0.023534
0.019976
0.013083
0.003725
0.005695
0.012360
0.013058
0.005348
0.010923
0.033452
0.058936
0.081585
0.023478
0.023310
0.089411
0.018945
0.016284
0.049314
0.051305
0.065763
0.053787
0.021116
0.046447
0.060074
0.033733
0.011315
0.071050
0.071763
0.010859
0.006017
0.006957
0.005932
0.007122
0.015839
0.015692
0.003266
0.002863
0.008354
0.056671
0.006972
0.006604
0.010667
0.002583
0.014019
0.007466
0.007251
0.012922
0.011120
0.009785
0.009822
0.009401
0.009978
0.009596
0.018188
0.017802
0.004424
0.006804
0.004002
0.004248
0.011991
0.017536
0.017708
0.007250
0.009888
0.013098
0.049280
0.006196
0.005721
0.009437
0.009638
0.009556
0.004470
0.003917
0.010575
0.010660
0.022035
0.016060
0.040341
0.017929
0.009266
0.007731
0.013714
0.005595
0.007704
0.003401
0.002720
0.015049
0.009428
0.006889
0.007879
0.007431
0.011992
0.017113
0.024435
0.023843
0.017897
0.020307
0.005476
0.013123
0.003592
0.013079
0.008033
0.007344
0.005107
0.036160
0.010579
0.009750
0.057367
0.031724
0.031824
0.055247
0.012086
0.040202
0.016118
0.013725
0.007462
0.014098
0.003258
0.002385
0.046202
0.051070
0.032353
0.051449
0.013521
0.016901
0.006675
0.015037
0.023242
0.054933
0.040269
0.029137
0.013545
0.012548
0.012325
0.003944
0.011712
0.015954
0.027789
0.029538
0.005250
0.048512
0.029730
0.016567
0.019589
0.019698
0.039662
0.008295
0.006980
0.007966
0.048516
0.014197
0.013832
0.010989
0.011015
0.013821
0.016590
0.019371
0.019594
0.011483
0.010735
0.009910
0.008976
0.007520
0.012287
0.010155
0.009208
0.008297
0.012312
0.006178
0.010159
0.013033
0.007239
0.010966
0.010051
0.005658
0.009237
0.008242
0.011683
0.014369
0.004885
0.003467
0.007786
0.006942
0.019611
0.029590
