# vtk DataFile Version 2.0
Unstructured Grid Example
ASCII
DATASET UNSTRUCTURED_GRID
POINTS 1689 float
-0.007358 0.005636 -0.000610 
0.992642 -0.004598 0.000094 
1.002876 0.995402 0.000782 
0.002876 1.005636 0.000078 
-0.007428 0.005567 0.099390 
0.992572 -0.004667 0.100094 
1.002805 0.995333 0.100782 
0.002805 1.005567 0.100078 
-0.006917 0.055567 0.099424 
-0.006405 0.105567 0.099459 
-0.005893 0.155567 0.099493 
-0.005381 0.205567 0.099528 
-0.004870 0.255567 0.099562 
-0.004358 0.305567 0.099596 
-0.003846 0.355567 0.099631 
-0.003335 0.405567 0.099665 
-0.002823 0.455567 0.099700 
-0.002311 0.505567 0.099734 
-0.001800 0.555567 0.099768 
-0.001288 0.605567 0.099803 
-0.000776 0.655567 0.099837 
-0.000265 0.705567 0.099871 
0.000247 0.755567 0.099906 
0.000759 0.805567 0.099940 
0.001270 0.855567 0.099975 
0.001782 0.905567 0.100009 
0.002294 0.955567 0.100043 
-0.006846 0.055636 -0.000576 
-0.006334 0.105636 -0.000541 
-0.005823 0.155636 -0.000507 
-0.005311 0.205636 -0.000472 
-0.004799 0.255636 -0.000438 
-0.004288 0.305636 -0.000404 
-0.003776 0.355636 -0.000369 
-0.003264 0.405636 -0.000335 
-0.002753 0.455636 -0.000300 
-0.002241 0.505636 -0.000266 
-0.001729 0.555636 -0.000232 
-0.001218 0.605636 -0.000197 
-0.000706 0.655636 -0.000163 
-0.000194 0.705636 -0.000129 
0.000317 0.755636 -0.000094 
0.000829 0.805636 -0.000060 
0.001341 0.855636 -0.000025 
0.001852 0.905636 0.000009 
0.002364 0.955636 0.000043 
-0.007393 0.005601 0.049390 
0.002841 1.005601 0.050078 
0.042572 0.005055 0.099425 
0.092572 0.004544 0.099460 
0.142572 0.004032 0.099496 
0.192572 0.003520 0.099531 
0.242572 0.003009 0.099566 
0.292572 0.002497 0.099601 
0.342572 0.001985 0.099636 
0.392572 0.001473 0.099672 
0.442572 0.000962 0.099707 
0.492572 0.000450 0.099742 
0.542572 -0.000062 0.099777 
0.592572 -0.000573 0.099812 
0.642572 -0.001085 0.099848 
0.692572 -0.001597 0.099883 
0.742572 -0.002108 0.099918 
0.792572 -0.002620 0.099953 
0.842572 -0.003132 0.099988 
0.892572 -0.003643 0.100024 
0.942572 -0.004155 0.100059 
0.042642 0.005124 -0.000575 
0.092642 0.004612 -0.000540 
0.142642 0.004101 -0.000504 
0.192642 0.003589 -0.000469 
0.242642 0.003077 -0.000434 
0.292642 0.002566 -0.000399 
0.342642 0.002054 -0.000364 
0.392642 0.001542 -0.000328 
0.442642 0.001031 -0.000293 
0.492642 0.000519 -0.000258 
0.542642 0.000007 -0.000223 
0.592642 -0.000504 -0.000188 
0.642642 -0.001016 -0.000152 
0.692642 -0.001528 -0.000117 
0.742642 -0.002040 -0.000082 
0.792642 -0.002551 -0.000047 
0.842642 -0.003063 -0.000012 
0.892642 -0.003575 0.000024 
0.942642 -0.004086 0.000059 
0.992607 -0.004632 0.050094 
0.993083 0.045333 0.100128 
0.993595 0.095333 0.100163 
0.994107 0.145333 0.100197 
0.994619 0.195333 0.100232 
0.995130 0.245333 0.100266 
0.995642 0.295333 0.100300 
0.996154 0.345333 0.100335 
0.996665 0.395333 0.100369 
0.997177 0.445333 0.100404 
0.997689 0.495333 0.100438 
0.998200 0.545333 0.100472 
0.998712 0.595333 0.100507 
0.999224 0.645333 0.100541 
0.999735 0.695333 0.100575 
1.000247 0.745333 0.100610 
1.000759 0.795333 0.100644 
1.001270 0.845333 0.100679 
1.001782 0.895333 0.100713 
1.002294 0.945333 0.100747 
0.993154 0.045402 0.000128 
0.993666 0.095402 0.000163 
0.994177 0.145402 0.000197 
0.994689 0.195402 0.000232 
0.995201 0.245402 0.000266 
0.995712 0.295402 0.000300 
0.996224 0.345402 0.000335 
0.996736 0.395402 0.000369 
0.997247 0.445402 0.000404 
0.997759 0.495402 0.000438 
0.998271 0.545402 0.000472 
0.998782 0.595402 0.000507 
0.999294 0.645402 0.000541 
0.999806 0.695402 0.000575 
1.000317 0.745402 0.000610 
1.000829 0.795402 0.000644 
1.001341 0.845402 0.000679 
1.001852 0.895402 0.000713 
1.002364 0.945402 0.000747 
1.002841 0.995368 0.050782 
0.952805 0.995845 0.100746 
0.902805 0.996357 0.100711 
0.852805 0.996868 0.100676 
0.802805 0.997380 0.100641 
0.752805 0.997892 0.100606 
0.702805 0.998403 0.100570 
0.652805 0.998915 0.100535 
0.602805 0.999427 0.100500 
0.552805 0.999938 0.100465 
0.502805 1.000450 0.100430 
0.452805 1.000962 0.100394 
0.402805 1.001473 0.100359 
0.352805 1.001985 0.100324 
0.302805 1.002497 0.100289 
0.252805 1.003009 0.100254 
0.202805 1.003520 0.100218 
0.152805 1.004032 0.100183 
0.102805 1.004544 0.100148 
0.052805 1.005055 0.100113 
0.952876 0.995914 0.000746 
0.902876 0.996425 0.000711 
0.852876 0.996937 0.000676 
0.802876 0.997449 0.000641 
0.752876 0.997960 0.000606 
0.702876 0.998472 0.000570 
0.652876 0.998984 0.000535 
0.602876 0.999496 0.000500 
0.552876 1.000007 0.000465 
0.502876 1.000519 0.000430 
0.452876 1.001031 0.000394 
0.402876 1.001542 0.000359 
0.352876 1.002054 0.000324 
0.302876 1.002566 0.000289 
0.252876 1.003077 0.000254 
0.202876 1.003589 0.000218 
0.152876 1.004101 0.000183 
0.102876 1.004612 0.000148 
0.052876 1.005124 0.000113 
0.677841 0.998694 0.050553 
0.577842 0.999718 0.049094 
0.777840 0.997669 0.052012 
0.477841 1.000740 0.050412 
0.878303 0.996642 0.051388 
0.377840 1.001763 0.051731 
0.277841 1.002787 0.050271 
0.177841 1.003810 0.050201 
0.074845 1.004864 0.050109 
0.932639 0.996086 0.050211 
0.427839 1.001250 0.052615 
0.527842 1.000230 0.048210 
0.827890 0.997156 0.052973 
0.727839 0.998180 0.052826 
0.627842 0.999207 0.048280 
0.227842 1.003300 0.048153 
0.327839 1.002274 0.052544 
0.127506 1.004324 0.052247 
0.035736 1.005254 0.065070 
0.971097 0.995682 0.066118 
0.972844 0.995687 0.032490 
0.033896 1.005297 0.031141 
0.498143 0.500569 0.100086 
0.288272 0.297646 0.099799 
0.705940 0.703483 0.100372 
0.705853 0.289388 0.100090 
0.289520 0.711505 0.100081 
0.501128 0.782820 0.100280 
0.778878 0.495518 0.100282 
0.494136 0.218075 0.099891 
0.220504 0.509786 0.099895 
0.162804 0.173710 0.099626 
0.826041 0.166842 0.100092 
0.831297 0.828803 0.100546 
0.169336 0.834059 0.100079 
0.564496 0.641274 0.100229 
0.430759 0.357846 0.099941 
0.642790 0.431967 0.100142 
0.352593 0.568935 0.100029 
0.639906 0.845667 0.100422 
0.354814 0.155405 0.099750 
0.147456 0.364765 0.099745 
0.842975 0.357741 0.100234 
0.846362 0.638495 0.100428 
0.635328 0.152214 0.099947 
0.360049 0.848687 0.100225 
0.152599 0.638513 0.099934 
0.676337 0.578648 0.100266 
0.319334 0.422755 0.099906 
0.556719 0.329881 0.100012 
0.438642 0.671015 0.100160 
0.536010 0.882793 0.100373 
0.458962 0.118326 0.099798 
0.880266 0.462316 0.100332 
0.116863 0.469733 0.099794 
0.746043 0.894075 0.100530 
0.104108 0.261350 0.099643 
0.253063 0.100835 0.099640 
0.891323 0.252032 0.100197 
0.888903 0.733346 0.100522 
0.730585 0.109236 0.099985 
0.264793 0.891664 0.100186 
0.111708 0.743024 0.099977 
0.600955 0.741205 0.100323 
0.397156 0.257322 0.099849 
0.736575 0.392084 0.100182 
0.258065 0.607204 0.099988 
0.600276 0.523875 0.100175 
0.395097 0.477030 0.099997 
0.607314 0.253164 0.099996 
0.388063 0.747736 0.100176 
0.091184 0.098943 0.099524 
0.895853 0.090613 0.100090 
0.907526 0.898614 0.100648 
0.100533 0.910308 0.100082 
0.439090 0.904487 0.100319 
0.902414 0.559313 0.100414 
0.556287 0.096413 0.099853 
0.094999 0.567390 0.099845 
0.253847 0.204481 0.099711 
0.741630 0.795786 0.100460 
0.793310 0.255238 0.100129 
0.207827 0.750088 0.100050 
0.191949 0.281594 0.099720 
0.798467 0.713353 0.100445 
0.708672 0.204384 0.100034 
0.286705 0.796516 0.100137 
0.499781 0.411816 0.100027 
0.495751 0.589213 0.100145 
0.238077 0.369499 0.099812 
0.758339 0.631078 0.100360 
0.692413 0.496811 0.100222 
0.304247 0.504331 0.099951 
0.637652 0.341703 0.100077 
0.357777 0.659604 0.100095 
0.075943 0.188206 0.099574 
0.172345 0.088577 0.099574 
0.819005 0.915783 0.100597 
0.913022 0.179133 0.100163 
0.917454 0.816965 0.100600 
0.814204 0.080684 0.100025 
0.082356 0.821767 0.100009 
0.186708 0.916930 0.100148 
0.650068 0.653882 0.100299 
0.515284 0.699336 0.100234 
0.346795 0.345143 0.099873 
0.480821 0.304073 0.099940 
0.610952 0.917030 0.100450 
0.384030 0.084080 0.099722 
0.074203 0.399825 0.099716 
0.914244 0.387245 0.100305 
0.924662 0.657044 0.100496 
0.654282 0.073477 0.099907 
0.341095 0.927424 0.100265 
0.074730 0.666359 0.099898 
0.432686 0.822662 0.100259 
0.820243 0.562008 0.100357 
0.562691 0.178238 0.099913 
0.177376 0.570742 0.099906 
0.187746 0.435410 0.099821 
0.574753 0.818652 0.100357 
0.420021 0.182596 0.099814 
0.815899 0.424365 0.100260 
0.563067 0.457512 0.100103 
0.432317 0.543426 0.100069 
0.666425 0.779909 0.100396 
0.770710 0.329743 0.100164 
0.223066 0.671050 0.100007 
0.329612 0.221231 0.099776 
0.678790 0.929272 0.100506 
0.064340 0.321908 0.099656 
0.316518 0.071621 0.099665 
0.926520 0.319285 0.100268 
0.744556 0.557238 0.100300 
0.447868 0.737974 0.100212 
0.547519 0.262884 0.099960 
0.612710 0.593048 0.100231 
0.382045 0.408486 0.099941 
0.255080 0.446791 0.099877 
0.583073 0.393722 0.100074 
0.412364 0.607194 0.100098 
0.447750 0.428218 0.100001 
0.547574 0.572730 0.100171 
0.487567 0.935846 0.100375 
0.933159 0.510606 0.100402 
0.507807 0.065059 0.099797 
0.062728 0.519448 0.099790 
0.501703 0.839192 0.100319 
0.834222 0.503305 0.100327 
0.493538 0.161798 0.099853 
0.151182 0.504484 0.099842 
0.696894 0.841164 0.100459 
0.298477 0.159832 0.099713 
0.838109 0.300721 0.100192 
0.149854 0.705625 0.099978 
0.155030 0.233098 0.099660 
0.842273 0.771289 0.100515 
0.768528 0.155866 0.100044 
0.226849 0.845034 0.100128 
0.664418 0.236711 0.100025 
0.330959 0.764189 0.100147 
0.703390 0.358001 0.100135 
0.291868 0.642644 0.100036 
0.939130 0.603214 0.100470 
0.600423 0.059085 0.099859 
0.394954 0.941815 0.100313 
0.058634 0.612353 0.099850 
0.738879 0.462991 0.100232 
0.263229 0.537094 0.099944 
0.047160 0.059049 0.099465 
0.939090 0.049921 0.100093 
0.948217 0.941851 0.100706 
0.056129 0.951640 0.100079 
0.774714 0.943059 0.100584 
0.051248 0.237441 0.099590 
0.220955 0.058496 0.099588 
0.944671 0.767305 0.100585 
0.764543 0.053467 0.099972 
0.231000 0.946608 0.100200 
0.940300 0.223412 0.100212 
0.056095 0.776370 0.099960 
0.215321 0.162547 0.099655 
0.776636 0.845459 0.100519 
0.842725 0.221375 0.100141 
0.155862 0.779384 0.100033 
0.554081 0.947885 0.100430 
[...]
POINT_DATA 1689
SCALARS u float 1
LOOKUP_TABLE default
0.098157
0.091696
0.057904
0.066868
0.098311
0.092712
0.058132
0.065884
0.094025
0.089862
0.085839
0.081977
0.078301
0.074836
0.071614
0.068670
0.066039
0.063762
0.061877
0.060421
0.059425
0.058913
0.058897
0.059378
0.060344
0.061772
0.063630
0.093907
0.089783
0.085804
0.081989
0.078365
0.074957
0.071796
0.068918
0.066358
0.064155
0.062346
0.060967
0.060048
0.059608
0.059660
0.060202
0.061220
0.062692
0.064587
0.098232
0.066376
0.095149
0.092198
0.089478
0.087011
0.084819
0.082924
0.081346
0.080105
0.079217
0.078692
0.078539
0.078759
0.079350
0.080303
0.081606
0.083242
0.085192
0.087435
0.089949
0.094948
0.091948
0.089177
0.086656
0.084408
0.082456
0.080821
0.079522
0.078577
0.077997
0.077792
0.077964
0.078511
0.079425
0.080693
0.082300
0.084225
0.086448
0.088945
0.092204
0.088185
0.083765
0.079468
0.075316
0.071334
0.067553
0.064008
0.060740
0.057797
0.055229
0.053093
0.051441
0.050321
0.049769
0.049805
0.050426
0.051612
0.053326
0.055517
0.087163
0.082736
0.078434
0.074278
0.070295
0.066516
0.062976
0.059719
0.056793
0.054252
0.052153
0.050550
0.049491
0.049013
0.049131
0.049841
0.051120
0.052925
0.055205
0.058016
0.053565
0.049172
0.045003
0.041127
0.037634
0.034641
0.032286
0.030718
0.030059
0.030368
0.031617
0.033702
0.036480
0.039806
0.043554
0.047626
0.051944
0.056453
0.061110
0.053391
0.049063
0.044971
0.041187
0.037804
0.034938
0.032725
0.031305
0.030786
0.031214
0.032552
0.034694
0.037503
0.040842
0.044591
0.048657
0.052965
0.057462
0.062107
0.033554
0.030605
0.039378
0.031326
0.047055
0.035505
0.042153
0.050271
0.059546
0.051689
0.033025
0.030503
0.043030
0.036174
0.031660
0.046094
0.038575
0.054694
0.063078
0.055146
0.055237
0.063592
0.024880
0.053979
0.018113
0.050352
0.027575
0.008258
0.035703
0.055189
0.042083
0.072666
0.067720
0.033506
0.042179
0.009719
0.041644
0.033565
0.026767
0.017185
0.065048
0.058060
0.051346
0.034336
0.062820
0.024036
0.043372
0.021592
0.040812
0.042845
0.012954
0.017444
0.066375
0.046337
0.053902
0.028979
0.069285
0.074652
0.063568
0.037715
0.069670
0.035170
0.046785
0.007237
0.053123
0.041718
0.033477
0.022751
0.031359
0.051576
0.017128
0.083782
0.078538
0.044063
0.051946
0.022653
0.042965
0.068101
0.051516
0.064598
0.023188
0.057612
0.036451
0.061371
0.027951
0.059141
0.028889
0.034298
0.015746
0.050828
0.025630
0.029609
0.035304
0.042769
0.021397
0.077220
0.079907
0.036690
0.071354
0.042052
0.075644
0.050988
0.043843
0.014218
0.004895
0.046386
0.046126
0.022415
0.071587
0.061912
0.054356
0.042162
0.071559
0.031054
0.051164
0.016184
0.034939
0.059263
0.043060
0.049742
0.011225
0.060292
0.043992
0.029114
0.023143
0.015066
0.049388
0.035207
0.059339
0.026926
0.067912
0.074989
0.060436
0.028514
0.010713
0.050071
0.016355
0.038537
0.043458
0.036175
0.019193
0.033829
0.016663
0.023845
0.048283
0.071600
0.056673
0.013509
0.039703
0.061263
0.048789
0.021271
0.066791
0.055943
0.042679
0.067984
0.033081
0.066253
0.036662
0.054478
0.023458
0.043380
0.028714
0.045018
0.072380
0.028567
0.053927
0.035473
0.036591
0.090103
0.084675
0.050123
0.058140
0.034819
0.075153
0.080298
0.043999
0.076527
0.041472
0.069241
0.053045
0.070623
0.028816
0.063422
0.042371
0.024461
0.053148
0.073649
0.061164
0.062042
0.033752
0.064463
0.029179
0.012376
0.052076
0.040380
0.009668
0.054798
0.003953
0.051962
0.049075
0.019525
0.008058
0.047299
0.083232
0.085524
0.077374
0.042721
0.080846
0.046829
0.055187
0.051213
0.024260
0.035410
0.038823
0.045526
0.016810
0.038083
0.028718
0.016649
0.065821
0.048839
0.059525
0.022627
0.055511
0.030836
0.055185
0.023600
0.059107
0.011833
0.046199
0.043964
0.074993
0.053095
0.036687
0.078283
0.073413
0.039227
0.045799
0.019027
0.057721
0.028287
0.029680
0.067300
0.028428
0.062369
0.037550
0.048905
0.022087
0.025153
0.039413
0.067072
0.048275
0.031121
0.024383
0.026632
0.056811
0.029160
0.059115
0.024503
0.073483
0.022511
0.070147
0.056525
0.027589
0.048339
0.073837
0.057076
0.037114
0.070733
0.041191
0.019234
0.044294
0.066861
0.052493
0.062815
0.013651
0.054731
0.029124
0.021165
0.052970
0.031295
0.072651
0.078623
0.065169
0.038718
0.033606
0.068226
0.046262
0.014502
0.038075
0.050812
0.033468
0.031308
0.027380
0.066778
0.076401
0.059493
0.045143
0.026349
0.023889
0.078146
0.038190
0.072758
0.048708
0.074939
0.058181
0.017410
0.052106
0.032530
0.080787
0.084396
0.074540
0.039993
0.046863
0.080231
0.055697
0.047150
0.045562
0.005726
0.045186
0.040591
0.031298
0.039643
0.040176
0.020333
0.029579
0.040503
0.037467
0.017587
0.022874
0.033019
0.047850
0.037362
0.012740
0.006327
0.008887
0.045962
0.050332
0.012660
0.017176
0.041798
0.035092
0.046341
0.076108
0.055464
0.056036
0.007455
0.037391
0.028218
0.066931
0.032128
0.066796
0.048026
0.013195
0.062214
0.043609
0.025795
0.064637
0.075152
0.056161
0.017463
0.039656
0.063022
0.047525
0.020338
0.036651
0.062752
0.045164
0.066117
0.072634
0.045603
0.032837
0.033137
0.018941
0.039021
0.071969
0.039566
0.045179
0.020352
0.069006
0.053574
0.052627
0.074864
0.026188
0.060926
0.016932
0.051571
0.040005
0.038919
0.069610
0.032195
0.057281
0.087782
0.088952
0.082063
0.047428
0.083904
0.049563
0.057850
0.055144
0.058048
0.043835
0.062538
0.070148
0.015552
0.045559
0.025095
0.008471
0.032084
0.023433
0.048099
0.012588
0.057811
0.044208
0.050075
0.039698
0.020869
0.051095
0.004022
0.049608
0.037733
0.014147
0.026965
0.026812
0.055107
0.011989
0.030490
0.070613
0.078952
0.063390
0.013829
0.047397
0.041780
0.062455
0.051407
0.075441
0.059974
0.027753
0.055557
0.021002
0.029011
0.018797
0.053442
0.037524
0.075068
0.062619
0.034612
0.018313
0.027265
0.060389
0.063638
0.033406
0.041052
0.025266
0.065472
0.031857
0.063938
0.032296
0.046890
0.012813
0.019855
0.037297
0.070327
0.025404
0.060113
0.040983
0.025974
0.072646
0.060360
0.046710
0.046900
0.075496
0.055959
0.032724
0.093925
0.088414
0.053843
0.061708
0.053399
0.009794
0.019214
0.044551
0.047764
0.030002
0.037753
0.033451
0.009925
0.042330
0.059134
0.023927
0.056971
0.072555
0.081723
0.076894
0.042756
0.047686
0.053698
0.026826
0.020400
0.030898
0.069931
0.021737
0.070541
0.049302
0.057274
0.076859
0.085755
0.068892
0.055957
0.061809
0.049578
0.051744
0.049732
0.052200
0.054395
0.053604
0.065208
0.072761
0.081106
0.058694
0.050693
0.049369
0.050398
0.089359
0.056318
0.056293
0.089245
0.088047
0.093741
0.083593
0.079296
0.078207
0.080463
0.078596
0.088322
0.083703
0.081793
0.078232
0.085678
0.090696
0.078558
0.081938
0.079334
0.085785
0.080360
0.090492
0.096140
0.096236
0.090273
0.024299
0.053699
0.017319
0.049444
0.028223
0.009120
0.034686
0.054421
0.042281
0.072472
0.066755
0.033133
0.043079
0.008801
0.041186
0.032587
0.026786
0.017430
0.064580
0.058112
0.050363
0.033362
0.061958
0.025116
0.043895
0.020627
0.040709
0.041993
0.013303
0.018183
0.065685
0.045237
0.054140
0.028986
0.069261
0.074400
0.062579
0.037121
0.068837
0.036160
0.047542
0.006912
0.052632
0.040694
0.033766
0.021777
0.031028
0.050779
0.017994
0.083544
0.077470
0.043759
0.052899
0.023651
0.042002
0.067307
0.051971
0.064355
0.022858
0.056535
0.037148
0.061231
0.027176
0.058181
0.029815
0.033623
0.015342
0.050841
0.024600
0.028587
0.035170
0.041935
0.021803
0.077186
0.079670
0.036568
0.070344
0.041627
0.074710
0.051850
0.044881
0.013208
0.005004
0.046022
0.045437
0.022889
0.071023
0.062037
0.053293
0.041303
0.070675
0.032089
0.051879
0.017317
0.033893
0.058534
0.043394
0.049774
0.011699
0.059693
0.042953
0.028314
0.022899
0.014831
0.048499
0.035628
0.059060
0.027198
0.067952
0.074566
0.059420
0.027487
0.011566
0.049375
0.015325
0.038096
0.043460
0.035371
0.019232
0.033351
0.015944
0.024739
0.047287
0.070879
0.057046
0.014422
0.038699
0.060559
0.049051
0.021273
0.066496
0.054914
0.043373
0.067820
0.032497
0.065299
0.037610
0.053594
0.024304
0.042456
0.029101
0.044110
0.071564
0.029585
0.054471
0.034443
0.036801
0.090023
0.083752
0.049856
0.059121
0.034847
0.075158
0.079980
0.043384
0.075587
0.042483
0.068223
0.053838
0.070460
0.028551
0.062407
0.043181
0.025147
0.052111
0.072988
0.061446
0.061960
0.032934
0.063639
0.030262
0.011558
0.051389
0.039672
0.009287
0.054933
0.004515
0.051575
0.048878
0.018580
0.007155
0.046740
0.083203
0.085357
0.076420
0.042627
0.079946
0.046481
0.056101
0.052207
0.023251
0.035171
0.039216
0.044841
0.017450
0.037109
0.028881
0.017100
0.065187
0.047728
0.059212
0.021933
0.054572
0.031631
0.054970
0.022733
0.058611
0.011825
0.045187
0.043177
0.074053
0.053864
0.037734
0.078117
0.072441
0.038848
0.046762
0.020094
0.056913
0.027362
0.029619
0.067076
0.027988
0.061415
0.038411
0.048060
0.022772
0.026199
0.038507
0.066247
0.048812
0.030187
0.023621
0.026248
0.056833
0.028324
0.058261
0.025482
0.073353
0.022616
0.069655
0.055474
0.028563
0.047393
0.073077
0.057538
0.036638
0.069792
0.042150
0.020163
0.043289
0.066155
0.052826
0.062883
0.014651
0.053985
0.028428
0.020735
0.052967
0.031474
0.072719
0.078229
0.064143
0.038999
0.033355
0.067212
0.047125
0.014426
0.037346
0.050986
0.032496
0.031458
0.027806
0.066929
0.075874
0.058458
0.045049
0.025293
0.022867
0.078016
0.037936
0.071770
0.049650
0.074839
0.057831
0.016889
0.051145
0.033217
0.080740
0.084087
0.073508
0.039935
0.046335
0.079270
0.056553
0.048103
0.046238
0.004976
0.044794
0.039582
0.030271
0.039543
0.040224
0.019705
0.029044
0.039753
0.036660
0.017855
0.023053
0.032022
0.047895
0.036844
0.012057
0.007178
0.009378
0.045272
0.049593
0.011632
0.016087
0.041408
0.036136
0.045504
0.075225
0.056156
0.055462
0.007749
0.036543
0.029232
0.066063
0.032092
0.065877
0.048843
0.013838
0.061488
0.042489
0.026360
0.064915
0.074537
0.055134
0.018487
0.038666
0.062275
0.047886
0.021465
0.035697
0.061987
0.045597
0.066066
0.072591
0.044636
0.033223
0.032349
0.018722
0.038406
0.070989
0.040490
0.045267
0.020639
0.068441
0.052525
0.051629
0.074193
0.027002
0.061307
0.016814
0.050564
0.040568
0.038088
0.068653
0.033167
0.056648
0.087736
0.088822
0.081125
0.047228
0.082989
0.049214
0.058840
0.056188
0.058146
0.043218
0.062240
0.069424
0.014693
0.044728
0.025643
0.009257
0.031234
0.023415
0.048842
0.013622
0.057102
0.044475
0.049793
0.038680
0.021394
0.049992
0.003413
0.049186
0.037339
0.013235
0.026110
0.026636
0.054730
0.011585
0.030786
0.070763
0.078456
0.062324
0.014161
0.046374
0.041431
0.061914
0.050435
0.074725
0.060388
0.028654
0.054693
0.021889
0.028028
0.018470
0.052460
0.038120
0.074888
0.062252
0.034201
0.017409
0.026627
0.059430
0.063474
0.034154
0.040236
0.025551
0.065424
0.031052
0.062986
0.033291
0.046042
0.013409
0.018889
0.037005
0.070106
0.025293
0.059103
0.041650
0.026167
0.072429
0.059410
0.046884
0.046014
0.074631
0.056523
0.033724
0.093764
0.087401
0.053596
0.062684
0.052691
0.010767
0.018170
0.044280
0.046841
0.030575
0.036775
0.033615
0.009964
0.041588
0.059184
0.024200
0.055900
0.071995
0.081618
0.076047
0.042387
0.048651
0.052796
0.027527
0.019603
0.030507
0.070015
0.022458
0.069799
0.048218
0.057522
0.080144
0.092141
0.073255
0.065008
0.059206
0.060150
0.060234
0.063256
0.084004
0.070121
0.062919
0.076582
0.059489
0.059422
0.061470
0.061308
0.067383
0.087901
0.064700
0.095432
0.095544
0.065132
0.033319
0.029936
0.039888
0.027777
0.023642
0.035591
0.032476
0.054273
0.052293
0.030557
0.036459
0.043537
0.040999
0.029899
0.032542
0.050244
0.047356
0.025701
0.021151
0.028284
0.026304
0.038950
0.046325
0.058390
0.025591
0.026626
0.042547
0.051308
0.056556
0.049168
0.076455
0.073887
0.049022
0.045909
0.041465
0.044547
0.039944
0.044529
0.045996
0.080257
0.044988
0.045041
0.047384
0.072748
0.084141
0.065680
0.062668
0.051136
0.059214
0.055850
0.047266
0.069150
0.062360
0.053567
0.056272
0.044892
0.081817
0.040178
0.055740
0.077655
0.054729
0.011996
0.071844
0.067447
0.054015
0.067506
0.026947
0.068827
0.030899
0.016558
0.048161
0.018019
0.034080
0.038511
0.031897
0.036454
0.049907
0.030625
0.016111
0.049148
0.043556
0.053124
0.014201
0.068090
0.031457
0.040494
0.059541
0.056999
0.059030
0.023460
0.026621
0.026271
0.036321
0.089125
0.058873
0.031410
0.062816
0.050477
0.055705
0.004078
0.061941
0.057879
0.039486
0.032737
0.053443
0.034925
0.004123
0.029844
0.025167
0.026923
0.047054
0.025670
0.022004
0.023787
0.064568
0.012207
0.046229
0.042837
0.061543
0.036102
0.033283
0.044504
0.018259
0.071811
0.016179
0.037146
0.033867
0.039982
0.035912
0.063553
0.026023
0.073563
0.060793
0.075340
0.072466
0.078950
0.063222
0.029913
0.052718
0.073449
0.046782
0.057898
0.043984
0.058938
0.012073
0.031775
0.055401
0.044084
0.040060
0.017413
0.052984
0.029745
0.050667
0.022261
0.073524
0.020346
0.007989
0.042709
0.027666
0.049248
0.030310
0.013311
0.016916
0.044399
0.044053
0.007428
0.034611
0.032725
0.022770
0.067408
0.047194
0.054509
0.080049
0.041549
0.068483
0.052768
0.037103
0.070042
0.049401
0.046986
0.029771
0.045686
0.036862
0.040706
0.042468
0.021100
0.039694
0.019736
0.021671
0.030504
0.072637
0.048096
0.030075
0.019859
0.062507
0.037065
0.045050
0.038955
0.030255
0.039168
0.053269
0.048797
0.028473
0.068757
0.054522
0.040492
0.071789
0.070275
0.062245
0.038931
0.014024
0.007390
0.048660
0.024216
0.071655
0.033393
0.048554
0.034421
0.041147
0.026052
0.038225
0.018293
0.050964
0.039449
0.012242
0.058628
0.011631
0.049819
0.046555
0.063083
0.004637
0.070162
0.068947
0.074592
0.065758
0.010555
0.004619
0.007677
0.044596
0.048686
0.011663
0.040358
0.059420
0.016675
0.017689
0.027928
0.032199
0.036555
0.021021
0.009834
0.065275
0.044696
0.053195
0.012601
0.016948
0.020503
0.014028
0.020383
0.018023
0.052677
0.059177
0.021188
0.022256
0.025739
0.081858
0.055210
0.075025
0.052768
0.085444
0.078380
0.065886
0.056757
0.052744
0.053897
0.055049
0.086460
0.052211
0.016082
0.036337
0.058228
0.017075
0.053109
0.021595
0.022548
0.053291
0.035962
0.037810
0.073408
0.029099
0.036981
0.038846
0.071525
0.046310
0.034712
0.067545
0.036129
0.028241
0.048626
0.032663
0.058741
0.071717
0.008288
0.052257
0.038738
0.022623
0.043532
0.081655
0.076112
0.020635
0.035000
0.020607
0.035412
0.021888
0.067104
0.052493
0.040440
0.069781
0.060990
0.026159
0.039524
0.030482
0.077624
0.067306
0.028543
0.061240
0.065279
0.039450
0.031060
0.026178
0.030739
0.007749
0.044068
0.032801
0.042021
0.065065
0.017577
0.043385
0.052973
0.039927
0.025975
0.067347
0.056193
0.048544
0.021591
0.058782
0.065312
0.013472
0.023427
0.069208
0.059860
0.035347
0.033218
0.013397
0.016297
0.032456
0.029277
0.063476
0.030717
0.063651
0.071728
0.022589
0.063374
0.034334
0.050658
0.016479
0.045573
0.039230
0.042329
0.024418
0.027544
0.029755
0.024355
0.051323
0.050034
0.072036
0.010552
0.054984
0.049070
0.053646
0.023365
0.020453
0.026762
0.024175
0.026843
0.008022
0.033707
0.055826
0.049730
0.017330
0.053711
0.016639
0.039749
0.046181
0.030755
0.048295
0.009920
0.046709
0.019614
0.019724
0.044182
0.066297
0.069391
0.075404
0.079546
0.071320
0.035330
0.069037
0.073662
0.043995
0.043284
0.079693
0.043079
0.075578
0.068025
0.056830
0.077786
0.083965
0.035799
0.072583
0.055557
0.061386
0.057052
0.045423
0.051149
0.054414
0.059997
0.040968
0.030428
0.008290
0.012592
0.065995
0.063270
0.026832
0.075999
0.014178
0.017062
0.049342
0.034359
0.058284
0.082661
0.034894
0.064462
0.026174
0.026992
0.057237
0.025193
0.048864
0.042771
0.026422
0.035544
0.036768
0.023582
0.040867
0.062491
0.067117
0.046472
0.062863
0.040613
0.049519
0.045738
0.060122
0.048137
0.057288
0.039949
0.034849
0.072004
0.042884
0.061523
0.074686
