# vtk DataFile Version 2.0
Unstructured Grid Example
ASCII
DATASET UNSTRUCTURED_GRID
POINTS 1221 float
-0.000055 -0.001443 0.004936 
0.998899 -0.004443 0.012606 
0.999327 0.998754 -0.006913 
0.001124 0.999610 -0.004582 
0.001372 0.000249 0.054941 
0.999171 0.003443 0.062550 
0.999093 1.003408 0.043104 
0.000990 1.002356 0.045408 
0.001009 0.050240 0.052982 
0.000511 0.100221 0.051085 
0.000151 0.150007 0.049652 
-0.000110 0.199796 0.049264 
-0.000289 0.249529 0.049823 
-0.000222 0.299620 0.051013 
-0.000051 0.349882 0.052072 
0.000118 0.400320 0.052312 
0.000152 0.450730 0.051208 
0.000184 0.500687 0.049379 
0.000086 0.550418 0.047630 
-0.000040 0.599951 0.046709 
-0.000162 0.649251 0.047491 
-0.000089 0.698919 0.049648 
-0.000013 0.749386 0.052201 
0.000032 0.800088 0.053492 
0.000238 0.851022 0.053321 
0.000465 0.901790 0.051300 
0.000675 0.952299 0.048424 
-0.000191 0.048628 0.002983 
-0.000467 0.098727 0.001030 
-0.000587 0.149191 -0.000266 
-0.000631 0.199833 -0.000730 
-0.000628 0.250254 -0.000130 
-0.000478 0.300531 0.001047 
-0.000252 0.350474 0.002100 
0.000014 0.400045 0.002274 
0.000308 0.449605 0.001172 
0.000429 0.499293 -0.000645 
0.000469 0.549486 -0.002356 
0.000488 0.599770 -0.003310 
0.000143 0.650362 -0.002577 
-0.000152 0.700756 -0.000269 
-0.000490 0.750808 0.002173 
-0.000513 0.800495 0.003689 
-0.000271 0.850061 0.003363 
0.000121 0.899639 0.001421 
0.000685 0.949587 -0.001553 
0.000651 -0.000602 0.029883 
0.001043 1.000978 0.020467 
0.051281 0.000401 0.053267 
0.101130 0.000549 0.051559 
0.150652 0.000708 0.050723 
0.200068 0.000967 0.050790 
0.249644 0.001054 0.051564 
0.299387 0.001067 0.052885 
0.349534 0.001165 0.054571 
0.399694 0.001153 0.055566 
0.450145 0.001058 0.055615 
0.500616 0.000897 0.054559 
0.550790 0.000818 0.052942 
0.600588 0.000793 0.051661 
0.649997 0.001118 0.051643 
0.699453 0.001418 0.053094 
0.749146 0.002232 0.055460 
0.799216 0.002533 0.057873 
0.849186 0.002807 0.059850 
0.899065 0.002781 0.061011 
0.949240 0.003387 0.062268 
0.049903 -0.001104 0.003225 
0.099991 -0.000642 0.001589 
0.150375 -0.000288 0.000712 
0.200474 -0.000109 0.000724 
0.250416 -0.000114 0.001482 
0.300568 -0.000348 0.002809 
0.350314 -0.000809 0.004558 
0.399988 -0.001225 0.005574 
0.449685 -0.001505 0.005641 
0.499551 -0.001519 0.004616 
0.549703 -0.001309 0.002946 
0.600019 -0.000977 0.001649 
0.650416 -0.000809 0.001512 
0.700741 -0.000976 0.003134 
0.750699 -0.001482 0.005607 
0.800407 -0.001822 0.007835 
0.849791 -0.002138 0.009636 
0.899449 -0.002832 0.011042 
0.949102 -0.003911 0.012075 
0.999037 -0.000513 0.037436 
0.999748 0.053104 0.054095 
1.000456 0.102225 0.045705 
1.001095 0.150135 0.041078 
1.001290 0.199012 0.040204 
1.001573 0.248191 0.043242 
1.000932 0.298244 0.048467 
1.000178 0.348390 0.054974 
0.999461 0.400227 0.058078 
0.999207 0.451884 0.056605 
0.999355 0.502465 0.051180 
0.999651 0.551693 0.045233 
1.000209 0.600033 0.042074 
1.000598 0.648474 0.043538 
1.000608 0.698495 0.047901 
1.000379 0.748828 0.052889 
1.000075 0.799750 0.056309 
0.999861 0.851381 0.056093 
0.999755 0.902583 0.052861 
0.999361 0.953199 0.047988 
0.999051 0.045781 0.003866 
0.999284 0.096144 -0.004303 
0.999409 0.148479 -0.009192 
0.999744 0.200057 -0.009605 
0.999826 0.251501 -0.006734 
1.000209 0.302429 -0.001372 
1.000139 0.351937 0.005121 
1.000155 0.400606 0.008211 
0.999924 0.448621 0.006405 
0.999755 0.497630 0.001143 
0.999680 0.548096 -0.004814 
0.999463 0.599313 -0.007842 
0.999975 0.650663 -0.006531 
1.000312 0.701513 -0.001992 
1.000579 0.751675 0.002942 
1.000698 0.800740 0.005998 
1.000577 0.849418 0.006341 
1.000119 0.898826 0.002898 
0.999691 0.948609 -0.001914 
0.999219 1.001077 0.018166 
0.949050 1.002839 0.043187 
0.899213 1.002030 0.043525 
0.849377 1.001602 0.043493 
0.799490 1.001279 0.043586 
0.749695 1.001180 0.043592 
0.699895 1.000834 0.043910 
0.650091 1.000872 0.044676 
0.600366 1.000741 0.045639 
0.550413 1.000865 0.047033 
0.500264 1.000603 0.048639 
0.450009 1.000369 0.049791 
0.399793 1.000264 0.050320 
0.349628 1.000036 0.050395 
0.299629 0.999901 0.049947 
0.249800 1.000016 0.049073 
0.200088 1.000227 0.048116 
0.150513 1.000485 0.047215 
0.100821 1.001115 0.046598 
0.050926 1.001895 0.045868 
0.949330 0.998713 -0.006649 
0.899328 0.998310 -0.006540 
0.849462 0.998421 -0.006443 
0.799627 0.998136 -0.006463 
0.749709 0.998094 -0.006441 
0.699707 0.998253 -0.006215 
0.649674 0.998428 -0.005403 
0.599654 0.999020 -0.004349 
0.549464 0.999361 -0.002933 
0.499441 0.999845 -0.001365 
0.449594 1.000135 -0.000202 
0.399610 1.000012 0.000322 
0.349730 0.999840 0.000384 
0.300056 0.999579 -0.000094 
0.250337 0.999267 -0.001003 
0.200603 0.999150 -0.002075 
0.150786 0.999320 -0.002805 
0.101024 0.999295 -0.003465 
0.051070 0.999422 -0.004121 
0.025349 1.000517 0.014502 
0.020819 1.001405 0.030986 
0.974955 1.000406 0.012058 
0.979353 1.001896 0.028562 
0.481483 1.000263 0.024150 
0.774640 0.999671 0.018615 
0.674940 0.999646 0.019235 
0.525633 1.000155 0.022760 
0.724752 0.999580 0.018681 
0.625022 0.999658 0.020153 
0.075968 1.000434 0.021128 
0.225179 0.999662 0.023487 
0.575047 1.000008 0.021453 
0.175543 0.999740 0.022591 
0.125809 0.999990 0.021867 
0.874336 0.999944 0.018601 
0.824497 0.999867 0.018589 
0.374684 1.000044 0.025412 
0.917521 1.000361 0.018400 
0.274913 0.999699 0.024454 
0.324730 0.999829 0.025249 
0.424705 1.000206 0.025117 
0.500069 0.500522 0.049825 
0.292232 0.294897 0.049875 
0.707894 0.704506 0.050561 
0.708979 0.290021 0.051627 
0.290880 0.708942 0.049041 
0.501048 0.781746 0.051315 
0.783954 0.498638 0.048632 
0.499532 0.222560 0.048314 
0.224590 0.502961 0.051055 
0.168078 0.171026 0.047292 
0.831403 0.170223 0.045547 
0.830637 0.831239 0.055095 
0.168883 0.830119 0.051427 
0.563654 0.640656 0.047878 
0.436365 0.359114 0.051985 
0.641956 0.438129 0.051850 
0.353667 0.567402 0.049189 
0.639701 0.847119 0.052882 
0.360728 0.153903 0.048463 
0.151306 0.360402 0.051630 
0.846653 0.359725 0.055648 
0.846648 0.640580 0.045346 
0.641685 0.153830 0.046583 
0.358286 0.846318 0.050836 
0.153778 0.634637 0.048262 
0.678268 0.581098 0.046391 
0.560449 0.330256 0.052201 
0.439375 0.669645 0.048185 
0.322042 0.420156 0.051984 
0.533652 0.882766 0.050860 
0.465436 0.118175 0.049244 
0.881613 0.467114 0.053300 
0.120120 0.465909 0.051247 
0.744220 0.897379 0.051103 
0.107647 0.258062 0.049078 
0.258463 0.098491 0.048863 
0.897505 0.255209 0.046850 
0.890279 0.736173 0.051923 
0.737315 0.110646 0.047665 
0.262920 0.889274 0.050603 
0.110035 0.738088 0.050829 
0.601014 0.739656 0.051903 
0.398983 0.259480 0.049383 
0.744727 0.404781 0.054498 
0.251829 0.597873 0.048705 
0.598241 0.521378 0.048322 
0.398314 0.475230 0.051082 
0.611656 0.253182 0.049222 
0.387927 0.745776 0.049552 
0.097866 0.095037 0.049043 
0.902743 0.096012 0.048709 
0.905102 0.903566 0.051625 
0.098826 0.906000 0.050424 
0.436671 0.903387 0.050767 
0.902811 0.563680 0.044190 
0.563451 0.097361 0.048081 
0.097024 0.563375 0.048265 
0.258460 0.202575 0.047790 
0.742064 0.796843 0.054765 
0.797610 0.258055 0.049421 
0.208851 0.745040 0.050181 
0.195916 0.278988 0.049176 
0.798716 0.715237 0.050765 
0.714809 0.206309 0.047495 
0.285164 0.793125 0.050393 
0.502041 0.412085 0.051911 
0.497314 0.588823 0.047983 
0.240978 0.365258 0.051395 
0.759297 0.633836 0.046534 
0.689249 0.501154 0.048213 
0.645560 0.344828 0.053350 
0.309151 0.505155 0.050970 
0.354134 0.654729 0.048153 
0.080106 0.183383 0.048265 
0.177204 0.085113 0.048457 
0.817381 0.920077 0.049582 
0.920381 0.182312 0.042647 
0.917580 0.821815 0.055610 
0.821286 0.084586 0.050428 
0.080762 0.817756 0.052764 
0.185444 0.914282 0.049893 
0.651900 0.654914 0.048256 
0.348168 0.344369 0.051388 
0.513952 0.696600 0.049094 
0.485855 0.303079 0.051024 
0.610140 0.917636 0.049489 
0.389507 0.083749 0.051293 
0.078469 0.394665 0.052249 
0.916918 0.389554 0.057209 
0.925421 0.659470 0.045058 
0.660504 0.075912 0.048116 
0.339520 0.924925 0.050809 
0.074333 0.660845 0.048077 
0.431099 0.822080 0.050965 
0.820837 0.566040 0.044791 
0.568661 0.177564 0.046897 
0.179637 0.567134 0.048991 
0.190701 0.431419 0.052098 
0.573501 0.818418 0.052554 
0.426754 0.178923 0.048148 
0.821064 0.427825 0.054688 
0.565235 0.457775 0.050936 
0.435528 0.542536 0.049243 
0.774156 0.330738 0.054042 
0.225438 0.667891 0.048669 
0.667721 0.780638 0.053709 
0.333201 0.218408 0.048332 
0.677314 0.931021 0.048590 
0.068366 0.317659 0.051014 
0.322522 0.070364 0.051032 
0.930888 0.321214 0.052520 
0.745608 0.559178 0.045731 
0.447639 0.736373 0.049631 
0.551887 0.262435 0.049585 
0.614067 0.594782 0.047081 
0.386213 0.406045 0.052026 
0.258951 0.443216 0.052021 
0.585102 0.392739 0.052586 
0.414737 0.607488 0.048280 
0.450778 0.428256 0.051675 
0.548579 0.572605 0.047751 
0.484648 0.934999 0.050003 
0.934101 0.516699 0.048747 
0.515737 0.066015 0.050763 
0.065463 0.515506 0.049293 
0.500038 0.839424 0.051567 
0.837307 0.508517 0.048406 
0.500520 0.152087 0.047614 
0.153798 0.501533 0.050567 
0.696674 0.843248 0.053595 
0.303791 0.157007 0.048094 
0.842725 0.302068 0.051715 
0.149174 0.701700 0.049444 
0.159314 0.231169 0.047986 
0.842499 0.772467 0.054380 
0.773502 0.158309 0.046546 
0.226684 0.841618 0.050871 
0.670014 0.237463 0.048676 
0.329875 0.761654 0.049851 
0.696473 0.355219 0.054065 
0.303185 0.644204 0.048295 
0.939723 0.606823 0.042502 
0.606815 0.060951 0.048862 
0.393603 0.939884 0.050731 
0.060297 0.606777 0.047212 
0.699761 0.433811 0.052439 
0.304213 0.559001 0.049541 
0.055263 0.054549 0.051418 
0.945186 0.057067 0.054093 
0.945403 0.948037 0.048088 
0.055090 0.947532 0.048687 
0.772438 0.946856 0.047327 
0.055282 0.232023 0.049003 
0.226770 0.055183 0.049620 
0.945617 0.770953 0.054462 
0.771109 0.056887 0.051819 
0.228903 0.944794 0.049651 
0.947909 0.226932 0.042960 
0.054846 0.771323 0.052563 
0.219795 0.160532 0.047413 
0.775469 0.848113 0.054182 
0.848056 0.224571 0.046450 
0.155457 0.774546 0.051260 
0.553094 0.948509 0.048707 
[...]
POINT_DATA 1221
SCALARS u float 1
LOOKUP_TABLE default
0.095123
0.248057
0.130530
0.087556
0.094961
0.241189
0.143264
0.097198
0.058391
0.022550
0.007017
0.014267
0.010731
0.020438
0.038392
0.043222
0.026253
0.017475
0.044537
0.060888
0.048522
0.021092
0.042261
0.064605
0.064424
0.041805
0.053050
0.060832
0.031507
0.019121
0.018113
0.012753
0.023446
0.040093
0.042076
0.023576
0.019400
0.045443
0.062032
0.048202
0.015115
0.043826
0.069501
0.062419
0.027210
0.032322
0.091802
0.087917
0.065340
0.037034
0.022261
0.023131
0.035494
0.058015
0.087671
0.105298
0.105719
0.086702
0.058342
0.035745
0.036755
0.063758
0.110245
0.153654
0.190047
0.210766
0.235818
0.063067
0.031703
0.015812
0.016136
0.028545
0.053390
0.085814
0.105566
0.108142
0.090273
0.059875
0.035458
0.032633
0.062250
0.108042
0.148971
0.182607
0.211089
0.235355
0.230916
0.095156
0.089873
0.166277
0.183670
0.132624
0.046428
0.096753
0.149801
0.127887
0.051943
0.093788
0.146653
0.123309
0.049084
0.058085
0.116789
0.115588
0.071440
0.070887
0.107290
0.107695
0.172673
0.177732
0.127653
0.051751
0.101295
0.152314
0.121190
0.048882
0.095939
0.145943
0.121421
0.046627
0.063527
0.112531
0.118268
0.057880
0.044141
0.128781
0.137649
0.126349
0.124486
0.121337
0.120650
0.113718
0.099810
0.082100
0.057670
0.027970
0.007848
0.008574
0.010052
0.007167
0.017539
0.035130
0.053140
0.067940
0.085804
0.125876
0.125556
0.123101
0.124610
0.124353
0.119532
0.104250
0.082702
0.056402
0.027442
0.008754
0.009354
0.009173
0.008042
0.023802
0.042956
0.055340
0.068084
0.079483
0.083954
0.088042
0.127298
0.132495
0.016806
0.118437
0.106843
0.041584
0.117232
0.089881
0.074252
0.028868
0.065613
0.045934
0.059849
0.119000
0.118971
0.009635
0.123181
0.011637
0.007493
0.007009
0.010269
0.002964
0.015375
0.033054
0.018628
0.025753
0.029370
0.033681
0.020844
0.050587
0.083313
0.094531
0.026755
0.039260
0.037038
0.036666
0.017308
0.053697
0.028571
0.030284
0.104838
0.087289
0.063399
0.015915
0.032416
0.067119
0.042248
0.034682
0.037278
0.021320
0.015496
0.067949
0.024028
0.025286
0.018261
0.024755
0.061392
0.040742
0.043818
0.013053
0.017775
0.035850
0.014638
0.083785
0.024153
0.032308
0.021138
0.020401
0.008979
0.018919
0.033447
0.037029
0.014045
0.015591
0.108023
0.036841
0.032405
0.041352
0.088574
0.013214
0.009071
0.016097
0.023405
0.046787
0.009415
0.035481
0.038385
0.026056
0.064991
0.034472
0.063048
0.019807
0.034241
0.032211
0.032481
0.019079
0.137880
0.105121
0.034588
0.051230
0.003312
0.033768
0.025980
0.016854
0.020311
0.012783
0.027241
0.041638
0.133573
0.093742
0.038425
0.015602
0.037316
0.018755
0.096433
0.057769
0.019139
0.039184
0.047413
0.034306
0.088968
0.018292
0.016557
0.075358
0.025502
0.069392
0.030912
0.028985
0.019552
0.023332
0.054704
0.079350
0.007764
0.018276
0.054007
0.037772
0.037968
0.048330
0.032779
0.031334
0.042292
0.006220
0.037478
0.021459
0.014378
0.033664
0.039065
0.044340
0.012875
0.066867
0.035511
0.035361
0.013585
0.037626
0.082714
0.064334
0.017448
0.027853
0.004603
0.076183
0.031597
0.138817
0.024159
0.014466
0.051645
0.046977
0.012549
0.031577
0.093696
0.058304
0.039901
0.052296
0.020319
0.018644
0.083904
0.051686
0.006773
0.132737
0.047811
0.048461
0.078263
0.066550
0.023759
0.027316
0.116324
0.054540
0.029852
0.006917
0.030240
0.062683
0.015179
0.022382
0.018266
0.038882
0.038978
0.040507
0.014945
0.021057
0.021229
0.040047
0.019530
0.006372
0.018478
0.015344
0.121626
0.048569
0.093532
0.092493
0.046755
0.029495
0.019560
0.029866
0.011018
0.030541
0.037260
0.029635
0.032350
0.032293
0.017652
0.125121
0.022239
0.046598
0.012477
0.007757
0.004009
0.021848
0.065342
0.033316
0.104404
0.024346
0.023670
0.013749
0.008160
0.040240
0.054649
0.083557
0.016493
0.011236
0.058050
0.051156
0.010432
0.045830
0.092298
0.058434
0.018399
0.027828
0.021308
0.017889
0.118213
0.054470
0.041997
0.092339
0.013560
0.008506
0.070390
0.028236
0.013708
0.049333
0.056759
0.009577
0.041324
0.026862
0.021387
0.074244
0.008195
0.102378
0.021509
0.041402
0.099258
0.062399
0.014170
0.013211
0.040151
0.024531
0.006607
0.029082
0.009658
0.042782
0.018380
0.021996
0.033872
0.058189
0.009414
0.021857
0.056624
0.052449
0.103116
0.037471
0.037823
0.044615
0.012072
0.031572
0.055310
0.038290
0.058627
0.117093
0.036425
0.067715
0.073598
0.037003
0.042254
0.096432
0.035194
0.038837
0.057668
0.024613
0.036485
0.016114
0.022637
0.016631
0.171690
0.072839
0.117916
0.102955
0.062870
0.026029
0.004093
0.013922
0.026934
0.046982
0.036834
0.027721
0.019441
0.052102
0.035780
0.074708
0.038040
0.037847
0.044225
0.004186
0.022188
0.022005
0.014853
0.043621
0.036329
0.055615
0.036640
0.010464
0.083904
0.026243
0.031447
0.047234
0.029461
0.073914
0.016756
0.057138
0.026023
0.100665
0.038267
0.039821
0.040538
0.040194
0.042190
0.040661
0.066337
0.140937
0.020516
0.087375
0.054072
0.016037
0.018364
0.110037
0.062895
0.032584
0.007119
0.031427
0.086962
0.028922
0.009245
0.009090
0.035904
0.030048
0.089353
0.039657
0.007864
0.035823
0.023807
0.015439
0.116776
0.060001
0.031627
0.080778
0.063493
0.059893
0.021371
0.008681
0.076966
0.025476
0.036800
0.047904
0.014448
0.039280
0.015815
0.020863
0.046731
0.067420
0.119798
0.050005
0.030630
0.042301
0.035712
0.071581
0.035890
0.021099
0.055537
0.027992
0.036337
0.020562
0.013948
0.012243
0.015676
0.023097
0.049785
0.008016
0.033434
0.068371
0.012791
0.122726
0.024471
0.027780
0.038022
0.049020
0.008030
0.015905
0.052065
0.021086
0.029948
0.074640
0.026131
0.051845
0.050899
0.050694
0.113317
0.030640
0.045303
0.048616
0.023964
0.009494
0.041195
0.003641
0.089021
0.042885
0.013811
0.046775
0.033888
0.077878
0.031648
0.049714
0.065819
0.046693
0.034174
0.012359
0.081422
0.025039
0.015884
0.039577
0.059358
0.014850
0.024204
0.022983
0.035542
0.013613
0.039557
0.064551
0.029937
0.008927
0.024503
0.020126
0.017574
0.027232
0.128117
0.019174
0.050649
0.012491
0.060536
0.161024
0.098455
0.067100
0.032078
0.011777
0.013641
0.056971
0.032510
0.064603
0.026057
0.033450
0.036349
0.039443
0.019114
0.106301
0.026301
0.027282
0.032957
0.079869
0.009562
0.013616
0.008709
0.034448
0.022035
0.007163
0.057952
0.013184
0.064835
0.020272
0.014929
0.084726
0.099867
0.158847
0.172010
0.022747
0.083449
0.093518
0.127792
0.090429
0.017934
0.163085
0.185953
0.138874
0.029837
0.040288
0.079372
0.149299
0.136992
0.126798
0.142782
0.013548
0.082658
0.231559
0.231728
0.078005
0.081071
0.074506
0.038635
0.194371
0.167659
0.218299
0.127002
0.013643
0.019985
0.020586
0.041575
0.096700
0.097324
0.070633
0.106124
0.026754
0.039891
0.080007
0.040783
0.005194
0.004093
0.015894
0.032214
0.017797
0.029379
0.033927
0.033221
0.020747
0.049751
0.081938
0.095044
0.028832
0.040071
0.034839
0.041742
0.015837
0.052395
0.028624
0.029137
0.107816
0.085354
0.061749
0.015640
0.032217
0.066542
0.037821
0.037580
0.034236
0.016952
0.025770
0.063380
0.026219
0.032657
0.020152
0.021639
0.056432
0.041422
0.046274
0.013706
0.020495
0.040339
0.013829
0.083752
0.025475
0.035406
0.020035
0.018767
0.010939
0.017944
0.038698
0.033992
0.012653
0.015658
0.104576
0.041072
0.034457
0.040849
0.088955
0.016169
0.006941
0.016440
0.018238
0.050193
0.008272
0.036691
0.037968
0.026820
0.063553
0.030919
0.020082
0.060294
0.035188
0.034185
0.028662
0.027561
0.129269
0.104727
0.018494
0.051436
0.014463
0.033834
0.019018
0.025075
0.018842
0.017946
0.027287
0.040865
0.137048
0.092786
0.035169
0.014819
0.036962
0.018848
0.096930
0.056962
0.023997
0.038744
0.050146
0.035275
0.088592
0.017491
0.013865
0.069706
0.071307
0.024097
0.029215
0.039893
0.021295
0.019621
0.057949
0.077960
0.012090
0.010595
0.054448
0.037459
0.037235
0.048477
0.032351
0.031387
0.042254
0.005737
0.044886
0.028955
0.018529
0.027133
0.046061
0.045703
0.016248
0.070702
0.033459
0.042741
0.009976
0.038688
0.083134
0.066471
0.017592
0.028900
0.004292
0.080080
0.031064
0.134424
0.027053
0.014663
0.052078
0.025714
0.010835
0.030251
0.087915
0.037401
0.028854
0.057190
0.021001
0.009702
0.085580
0.044568
0.018961
0.124748
0.047750
0.047835
0.081557
0.067962
0.025368
0.026722
0.109815
0.055649
0.030377
0.009204
0.025043
0.060765
0.014304
0.023975
0.011818
0.037981
0.039736
0.039506
0.027856
0.005586
0.021043
0.039191
0.019681
0.014293
0.021636
0.009386
0.124391
0.047182
0.082499
0.091219
0.044947
0.028673
0.053142
0.028995
0.030099
0.034559
0.029918
0.067486
0.024133
0.030800
0.022893
0.119754
0.022017
0.046622
0.018778
0.005112
0.005732
0.017325
0.030981
0.063226
0.103692
0.018749
0.018114
0.014732
0.010338
0.038088
0.051869
0.083432
0.021200
0.011642
0.053666
0.014273
0.007316
0.045181
0.091976
0.060557
0.018294
0.024310
0.021159
0.018155
0.116741
0.052739
0.040718
0.090357
0.012810
0.004117
0.014722
0.046993
0.055050
0.008967
0.041981
0.027325
0.016505
0.075089
0.008372
0.108174
0.025664
0.042408
0.098118
0.052041
0.017897
0.013359
0.049285
0.032925
0.013659
0.030110
0.013487
0.039802
0.019224
0.020538
0.033795
0.065654
0.012418
0.015944
0.048352
0.017215
0.056723
0.098973
0.037519
0.037272
0.044219
0.033065
0.029501
0.008251
0.060906
0.039466
0.055170
0.117925
0.036811
0.067883
0.072743
0.037351
0.043736
0.098542
0.037350
0.038443
0.023691
0.057660
0.037169
0.014470
0.025064
0.010256
0.163165
0.076275
0.114819
0.098343
0.062524
0.029337
0.026667
0.024357
0.025016
0.071159
0.051263
0.034484
0.028603
0.027326
0.018821
0.052735
0.059616
0.036068
0.030598
0.076336
0.037326
0.039267
0.044506
0.013908
0.023974
0.006756
0.020257
0.044990
0.055806
0.036409
0.009940
0.084831
0.017930
0.032489
0.026152
0.046359
0.071576
0.015930
0.055288
0.031871
0.097451
0.038255
0.035522
0.034404
0.059759
0.043133
0.039745
0.065261
0.149654
0.020609
0.084588
0.052914
0.020660
0.018634
0.109410
0.061683
0.032016
0.009900
0.032933
0.085109
0.029051
0.035619
0.029337
0.088962
0.032296
0.015405
0.035829
0.025087
0.015970
0.120412
0.056514
0.063531
0.021800
0.011380
0.072156
0.076293
0.023961
0.033635
0.044768
0.013953
0.034810
0.020387
0.019576
0.063760
0.063792
0.122088
0.038741
0.014917
0.039603
0.036263
0.027837
0.034151
0.025034
0.017334
0.058174
0.029410
0.042148
0.034322
0.018850
0.012993
0.023093
0.049098
0.013006
0.011634
0.037157
0.010952
0.117214
0.016911
0.008236
0.038638
0.049421
0.007440
0.002253
0.018314
0.054478
0.080296
0.027942
0.045900
0.054007
0.051634
0.108984
0.035974
0.030971
0.049011
0.050776
0.026625
0.008870
0.043144
0.004757
0.087294
0.078514
0.041643
0.011904
0.045203
0.033049
0.031408
0.048747
0.064525
0.048962
0.033831
0.012560
0.072322
0.031793
0.017208
0.036316
0.061624
0.014008
0.018917
0.023699
0.057671
0.035058
0.038957
0.067570
0.025502
0.008016
0.030660
0.015399
0.012020
0.028860
0.128319
0.015234
0.050971
0.012686
0.061140
0.164287
0.080996
0.055143
0.029682
0.016575
0.057118
0.032400
0.064327
0.025620
0.061498
0.014792
0.034854
0.035649
0.038449
0.025183
0.105276
0.020361
0.024563
0.020021
0.079287
0.013744
0.014927
0.007495
0.034593
0.021400
0.010261
0.007962
0.061319
0.026413
0.017324
0.061272
0.071597
0.075562
0.078958
0.025138
0.011177
0.058141
0.070378
0.047962
0.018324
0.014461
0.015463
0.010756
0.034611
0.030663
0.008250
0.043939
0.035078
0.058932
0.054577
0.020293
0.028658
