# vtk DataFile Version 2.0
Unstructured Grid Example
ASCII
DATASET UNSTRUCTURED_GRID
POINTS 1221 float
-0.000781 -0.000861 0.014500 
1.000757 0.000542 0.001443 
0.999076 0.999328 -0.013727 
0.000674 1.000800 0.000468 
0.000825 0.000868 0.064503 
0.999192 -0.000638 0.051442 
1.000945 1.000726 0.036276 
-0.000749 0.999141 0.050469 
0.000809 0.050874 0.062689 
0.000707 0.100957 0.060723 
0.000653 0.151012 0.058572 
0.000537 0.200840 0.056388 
0.000332 0.250818 0.054350 
0.000277 0.300811 0.052464 
0.000248 0.350862 0.050560 
0.000042 0.400835 0.048505 
-0.000092 0.450770 0.046509 
-0.000176 0.500623 0.044787 
-0.000311 0.550431 0.043510 
-0.000360 0.600284 0.042573 
-0.000573 0.650008 0.041956 
-0.000634 0.699661 0.042093 
-0.000678 0.749404 0.042850 
-0.000681 0.799283 0.044098 
-0.000712 0.849202 0.045529 
-0.000727 0.899161 0.047151 
-0.000742 0.949142 0.048805 
-0.000719 0.049129 0.012685 
-0.000675 0.099039 0.010709 
-0.000546 0.149000 0.008594 
-0.000447 0.199023 0.006335 
-0.000323 0.249223 0.004355 
-0.000298 0.299171 0.002517 
-0.000255 0.349118 0.000550 
-0.000097 0.399138 -0.001501 
0.000068 0.449373 -0.003475 
0.000178 0.499406 -0.005183 
0.000290 0.549657 -0.006499 
0.000405 0.599753 -0.007413 
0.000558 0.649957 -0.008016 
0.000613 0.700234 -0.007894 
0.000687 0.750491 -0.007108 
0.000670 0.800626 -0.005938 
0.000671 0.850733 -0.004458 
0.000676 0.900792 -0.002850 
0.000682 0.950801 -0.001194 
0.000020 0.000001 0.039487 
-0.000037 0.999971 0.025468 
0.050814 0.000827 0.062812 
0.100912 0.000738 0.060891 
0.150975 0.000604 0.058775 
0.200983 0.000447 0.056597 
0.251003 0.000439 0.054497 
0.301010 0.000400 0.052386 
0.350893 0.000187 0.050118 
0.400947 0.000111 0.047980 
0.450837 0.000023 0.046028 
0.500619 -0.000092 0.044382 
0.550364 -0.000272 0.043298 
0.600108 -0.000337 0.042720 
0.649859 -0.000507 0.042608 
0.699592 -0.000527 0.043004 
0.749383 -0.000601 0.043926 
0.799248 -0.000612 0.045218 
0.849213 -0.000637 0.046711 
0.899201 -0.000626 0.048286 
0.949194 -0.000637 0.049871 
0.049195 -0.000861 0.012802 
0.099097 -0.000738 0.010880 
0.149079 -0.000506 0.008863 
0.199163 -0.000432 0.006591 
0.249168 -0.000395 0.004499 
0.299033 -0.000340 0.002405 
0.349037 -0.000205 0.000118 
0.399088 -0.000087 -0.002012 
0.449215 0.000028 -0.003979 
0.499417 0.000190 -0.005584 
0.549638 0.000289 -0.006738 
0.599860 0.000336 -0.007227 
0.650120 0.000523 -0.007400 
0.700287 0.000571 -0.006995 
0.750502 0.000618 -0.006083 
0.800651 0.000578 -0.004768 
0.850726 0.000556 -0.003289 
0.900752 0.000551 -0.001714 
0.950762 0.000546 -0.000132 
0.999975 -0.000048 0.026441 
0.999202 0.049363 0.052613 
0.999230 0.099382 0.053778 
0.999247 0.149432 0.054905 
0.999257 0.199474 0.055945 
0.999243 0.249533 0.056888 
0.999333 0.299713 0.057547 
0.999385 0.349955 0.057732 
0.999456 0.400276 0.057322 
0.999592 0.450511 0.056311 
0.999757 0.500667 0.054792 
0.999806 0.550697 0.053070 
1.000033 0.600838 0.051180 
1.000234 0.650854 0.048971 
1.000474 0.700721 0.047024 
1.000658 0.750860 0.044981 
1.000708 0.800821 0.042896 
1.000781 0.850754 0.040952 
1.000873 0.900738 0.039285 
1.000917 0.950719 0.037731 
1.000754 0.050541 0.002612 
1.000752 0.100537 0.003779 
1.000742 0.150497 0.004907 
1.000729 0.200475 0.005942 
1.000732 0.250420 0.006889 
1.000666 0.300214 0.007552 
1.000627 0.350063 0.007699 
1.000525 0.399721 0.007357 
1.000410 0.449494 0.006280 
1.000271 0.499344 0.004793 
1.000224 0.549375 0.003088 
1.000025 0.599225 0.001151 
0.999770 0.649228 -0.000934 
0.999542 0.699219 -0.002976 
0.999398 0.749111 -0.005002 
0.999283 0.799117 -0.007090 
0.999179 0.849201 -0.009032 
0.999136 0.899297 -0.010725 
0.999092 0.949308 -0.012259 
1.000010 1.000026 0.011287 
0.950925 1.000707 0.038208 
0.900954 1.000598 0.040275 
0.850985 1.000524 0.042350 
0.800986 1.000442 0.044536 
0.751020 1.000378 0.046814 
0.700948 1.000304 0.049061 
0.650937 1.000227 0.051479 
0.600797 0.999813 0.053723 
0.550713 0.999815 0.055642 
0.500416 0.999586 0.057120 
0.450140 0.999510 0.057828 
0.400022 0.999408 0.058182 
0.349850 0.999332 0.058219 
0.299581 0.999318 0.057822 
0.249427 0.999252 0.057027 
0.199338 0.999226 0.055911 
0.149294 0.999209 0.054659 
0.099267 0.999176 0.053284 
0.049251 0.999149 0.051888 
0.949074 0.999349 -0.011770 
0.899007 0.999385 -0.009718 
0.849061 0.999468 -0.007670 
0.798955 0.999534 -0.005418 
0.748932 0.999588 -0.003186 
0.698947 0.999661 -0.000970 
0.648926 0.999706 0.001490 
0.599239 1.000125 0.003709 
0.549329 1.000249 0.005648 
0.499641 1.000488 0.007086 
0.449969 1.000541 0.007836 
0.400032 1.000676 0.008171 
0.350126 1.000714 0.008244 
0.300306 1.000758 0.007839 
0.250473 1.000795 0.007021 
0.200567 1.000792 0.005929 
0.150611 1.000767 0.004651 
0.100656 1.000794 0.003291 
0.050670 1.000800 0.001885 
0.024441 1.000175 0.020047 
0.019458 0.999627 0.036447 
0.975480 0.999860 0.006101 
0.980602 1.000319 0.022454 
0.481721 1.000054 0.032461 
0.774981 0.999989 0.020677 
0.675010 0.999977 0.025260 
0.525774 1.000049 0.031433 
0.724984 0.999964 0.022912 
0.624994 0.999863 0.027718 
0.074961 0.999979 0.027597 
0.224961 1.000005 0.031515 
0.575102 1.000010 0.029781 
0.174949 1.000006 0.030301 
0.124960 0.999992 0.028982 
0.874963 0.999984 0.016310 
0.825012 0.999984 0.018430 
0.374995 1.000048 0.033237 
0.918305 0.999996 0.014490 
0.274950 1.000022 0.032494 
0.324957 1.000037 0.033106 
0.425011 1.000030 0.033052 
0.499706 0.499763 0.049858 
0.292785 0.295271 0.048498 
0.707950 0.705318 0.051452 
0.708715 0.290333 0.049899 
0.290480 0.708801 0.049266 
0.501515 0.781205 0.053554 
0.784405 0.498255 0.052847 
0.499486 0.222976 0.046359 
0.224127 0.503029 0.046448 
0.168815 0.171272 0.053668 
0.830349 0.169148 0.050173 
0.831074 0.831548 0.046947 
0.168373 0.829608 0.049756 
0.563530 0.640509 0.052186 
0.436203 0.359187 0.047602 
0.642137 0.437364 0.051259 
0.353091 0.566914 0.048268 
0.640342 0.846838 0.052109 
0.361306 0.153878 0.048442 
0.151430 0.361163 0.049126 
0.846239 0.360097 0.054178 
0.846462 0.641703 0.050536 
0.641349 0.153216 0.045782 
0.358222 0.845783 0.054131 
0.153326 0.634675 0.045042 
0.678405 0.581682 0.052264 
0.560409 0.330476 0.048394 
0.439036 0.668934 0.051016 
0.321879 0.420756 0.047388 
0.534154 0.881773 0.054636 
0.465466 0.117627 0.045625 
0.882029 0.466072 0.054223 
0.119775 0.466102 0.046483 
0.745142 0.896955 0.048586 
0.108242 0.258835 0.052444 
0.259339 0.098243 0.052416 
0.895888 0.255217 0.053965 
0.890105 0.737583 0.048001 
0.736453 0.109864 0.046173 
0.262442 0.888956 0.053931 
0.109656 0.738004 0.045520 
0.601229 0.740120 0.052618 
0.399181 0.260007 0.047250 
0.744889 0.404452 0.052547 
0.251233 0.597657 0.046677 
0.598124 0.520686 0.051579 
0.397871 0.474983 0.048195 
0.611458 0.253548 0.047522 
0.387873 0.745474 0.051845 
0.098229 0.095531 0.058143 
0.901671 0.094199 0.050625 
0.906001 0.902921 0.042558 
0.097878 0.904643 0.050153 
0.436808 0.902618 0.055722 
0.903074 0.563694 0.052143 
0.563325 0.096675 0.044293 
0.096624 0.563446 0.044461 
0.259268 0.202737 0.050608 
0.742335 0.797485 0.049969 
0.796648 0.257663 0.051187 
0.208635 0.744903 0.048226 
0.196716 0.279356 0.050632 
0.798422 0.716412 0.049952 
0.714235 0.206135 0.047980 
0.284959 0.792734 0.051413 
0.501803 0.411683 0.048896 
0.496964 0.588093 0.050787 
0.241002 0.365796 0.048276 
0.759344 0.634634 0.051439 
0.689422 0.500737 0.052369 
0.645585 0.344922 0.049858 
0.308538 0.504896 0.047215 
0.353659 0.654310 0.049452 
0.080791 0.184143 0.055488 
0.177882 0.084919 0.055744 
0.818434 0.919603 0.045383 
0.918418 0.181872 0.053148 
0.918001 0.821542 0.044528 
0.820272 0.082202 0.047827 
0.080164 0.816868 0.046805 
0.184675 0.913452 0.052867 
0.652001 0.655460 0.052202 
0.348107 0.344645 0.047617 
0.513836 0.696197 0.052337 
0.485796 0.303204 0.047292 
0.610639 0.916934 0.053240 
0.390177 0.083130 0.047941 
0.078464 0.395249 0.048428 
0.916568 0.389878 0.055687 
0.925235 0.660901 0.049474 
0.660137 0.074542 0.044227 
0.339383 0.924358 0.056105 
0.073894 0.661153 0.043633 
0.431155 0.821293 0.053953 
0.821012 0.566207 0.051930 
0.568470 0.177507 0.045739 
0.179227 0.567137 0.045441 
0.190563 0.432002 0.047380 
0.573914 0.818124 0.053290 
0.427111 0.179017 0.046773 
0.821298 0.427060 0.053743 
0.565225 0.457263 0.050317 
0.435062 0.541894 0.049269 
0.773808 0.330887 0.052114 
0.224998 0.667932 0.046980 
0.667900 0.781350 0.051640 
0.333851 0.218666 0.048631 
0.678099 0.930477 0.050767 
0.068831 0.318491 0.051070 
0.323457 0.070108 0.050475 
0.929686 0.322424 0.055884 
0.745928 0.559836 0.052181 
0.447655 0.736039 0.052330 
0.551792 0.262933 0.047128 
0.614057 0.594780 0.052161 
0.385768 0.405739 0.047674 
0.258654 0.443541 0.047070 
0.585186 0.392601 0.049687 
0.414255 0.606847 0.049720 
0.450365 0.427878 0.048451 
0.548352 0.571973 0.051395 
0.484774 0.934215 0.056129 
0.934468 0.515686 0.053674 
0.515635 0.065089 0.044518 
0.065022 0.515542 0.044978 
0.500644 0.838364 0.054414 
0.837778 0.507690 0.052977 
0.500425 0.151948 0.045500 
0.153449 0.501669 0.046004 
0.697349 0.843149 0.050664 
0.304437 0.157071 0.050070 
0.841755 0.302413 0.053357 
0.148834 0.701743 0.045814 
0.159934 0.231775 0.052266 
0.842474 0.773732 0.048112 
0.772644 0.157521 0.048252 
0.226274 0.841261 0.051630 
0.669590 0.237719 0.048031 
0.329772 0.761267 0.051328 
0.696470 0.355345 0.050935 
0.302642 0.643916 0.048314 
0.939641 0.607073 0.050940 
0.606622 0.060088 0.043584 
0.393726 0.939115 0.056682 
0.059999 0.606865 0.043426 
0.699974 0.433102 0.052111 
0.303541 0.558547 0.047386 
0.055213 0.054940 0.060908 
0.944792 0.053483 0.051015 
0.946790 0.946290 0.039845 
0.053798 0.945076 0.050230 
0.773613 0.946390 0.046679 
0.055950 0.232920 0.054138 
0.227674 0.054674 0.054471 
0.945819 0.772358 0.045487 
0.771003 0.054245 0.045723 
0.228406 0.944141 0.054924 
0.945789 0.226546 0.054900 
0.054287 0.771025 0.044750 
0.220569 0.160602 0.052456 
0.776118 0.848001 0.048315 
0.846916 0.224182 0.051876 
0.155007 0.774019 0.047711 
0.553653 0.947625 0.055089 
[...]
POINT_DATA 1221
SCALARS u float 1
LOOKUP_TABLE default
0.192483
0.022722
0.182258
0.015163
0.192554
0.023443
0.182277
0.016314
0.168644
0.142759
0.114543
0.085543
0.058734
0.034514
0.013995
0.022664
0.047314
0.069506
0.086162
0.098466
0.106708
0.105060
0.095361
0.079185
0.060826
0.040464
0.021798
0.168513
0.142544
0.114715
0.085027
0.058684
0.035281
0.014161
0.022943
0.046725
0.069076
0.086197
0.098291
0.106322
0.104813
0.094720
0.079509
0.060429
0.040154
0.021054
0.191692
0.006227
0.170223
0.144942
0.117092
0.088447
0.061240
0.034692
0.012179
0.029556
0.053714
0.074801
0.088879
0.096445
0.098057
0.092986
0.081175
0.064568
0.045536
0.026357
0.013701
0.170118
0.144785
0.118092
0.088097
0.060766
0.034594
0.013123
0.029257
0.053669
0.074336
0.089371
0.095742
0.098173
0.092940
0.081182
0.064136
0.045171
0.025819
0.012522
0.019079
0.037126
0.051664
0.066086
0.079578
0.091893
0.100322
0.102638
0.097223
0.083957
0.064101
0.041737
0.019157
0.017968
0.040992
0.067942
0.095091
0.120576
0.142587
0.163072
0.036682
0.051477
0.065991
0.079461
0.091841
0.100355
0.102209
0.097663
0.083538
0.064113
0.041798
0.018362
0.016314
0.041160
0.067690
0.095020
0.120465
0.142680
0.162915
0.181444
0.156795
0.129543
0.102299
0.073693
0.044553
0.018105
0.023354
0.050440
0.075287
0.094534
0.103796
0.108543
0.109124
0.104045
0.093814
0.079371
0.063223
0.045841
0.029145
0.156463
0.129510
0.102487
0.073264
0.044793
0.019466
0.024616
0.050123
0.075327
0.094109
0.103938
0.108484
0.109500
0.104292
0.093698
0.079501
0.062895
0.045626
0.028511
0.015604
0.015163
0.169246
0.171653
0.098732
0.057200
0.003458
0.085125
0.027637
0.036004
0.034365
0.086201
0.063268
0.070148
0.052690
0.114985
0.086938
0.108987
0.139064
0.099164
0.107266
0.106542
0.005344
0.021252
0.019845
0.007453
0.012798
0.047156
0.037823
0.048313
0.047181
0.049822
0.011295
0.042267
0.013010
0.029006
0.031898
0.017437
0.023286
0.028761
0.021879
0.014177
0.055724
0.009154
0.056106
0.055357
0.065931
0.030128
0.022030
0.014324
0.035026
0.061646
0.058061
0.056260
0.047012
0.022269
0.033479
0.033809
0.053612
0.028115
0.051644
0.053239
0.060208
0.034802
0.036460
0.034105
0.044412
0.021398
0.023971
0.033487
0.025097
0.108512
0.014949
0.099269
0.013941
0.075964
0.029231
0.075621
0.073500
0.012607
0.007174
0.018594
0.025154
0.011975
0.005179
0.027994
0.021252
0.015378
0.011542
0.023516
0.019463
0.031392
0.007408
0.036985
0.009855
0.073739
0.077253
0.062379
0.043374
0.073522
0.031265
0.044260
0.040159
0.029170
0.031550
0.031364
0.036061
0.043371
0.028680
0.022416
0.075607
0.009490
0.076822
0.081377
0.084658
0.052716
0.025902
0.056661
0.060565
0.035328
0.043694
0.043073
0.049774
0.006588
0.010655
0.029024
0.040667
0.022278
0.019841
0.014402
0.016644
0.012997
0.078398
0.029199
0.031291
0.038431
0.028623
0.031009
0.038956
0.006635
0.006429
0.020914
0.019029
0.081344
0.049093
0.072806
0.066697
0.058754
0.039817
0.059678
0.053233
0.013043
0.007829
0.045440
0.056063
0.031233
0.026871
0.025204
0.024506
0.027232
0.019196
0.014517
0.023608
0.014445
0.084995
0.088728
0.087152
0.028306
0.034900
0.145134
0.018911
0.135223
0.015028
0.045736
0.055499
0.060352
0.061090
0.057722
0.066303
0.065960
0.070505
0.033901
0.025691
0.026823
0.032767
0.067655
0.073558
0.052528
0.041613
0.009598
0.008317
0.049546
0.047367
0.040770
0.043031
0.026548
0.022195
0.030371
0.032770
0.035161
0.027185
0.024334
0.028374
0.030580
0.106223
0.110134
0.040867
0.094915
0.024154
0.106653
0.035543
0.036947
0.025160
0.033611
0.052141
0.055771
0.019978
0.011604
0.038529
0.045794
0.039385
0.062397
0.008879
0.008344
0.009182
0.011148
0.014867
0.013581
0.032401
0.031274
0.043676
0.033289
0.074349
0.085291
0.081042
0.077397
0.013258
0.070313
0.017304
0.042061
0.048121
0.029411
0.026243
0.027626
0.020248
0.010255
0.013299
0.015495
0.009341
0.071685
0.011351
0.071646
0.077556
0.017073
0.010284
0.013535
0.015570
0.022847
0.010410
0.009092
0.041057
0.036632
0.056506
0.019037
0.010466
0.064380
0.091378
0.033972
0.083367
0.080941
0.051301
0.023484
0.026900
0.070314
0.044571
0.068364
0.060491
0.009064
0.040464
0.046749
0.006187
0.004810
0.023400
0.018756
0.035242
0.033819
0.079581
0.047859
0.028362
0.030818
0.009813
0.015802
0.044404
0.042691
0.032984
0.009548
0.015206
0.088507
0.032760
0.031646
0.027182
0.080261
0.070581
0.022699
0.020991
0.047958
0.017813
0.016068
0.014634
0.025425
0.087824
0.090862
0.059183
0.076278
0.092386
0.044526
0.058260
0.053914
0.035441
0.038916
0.069797
0.034001
0.039168
0.009668
0.012614
0.011495
0.005410
0.030661
0.032897
0.024669
0.022048
0.037571
0.025755
0.032116
0.041522
0.030248
0.032740
0.030048
0.032512
0.094930
0.021277
0.086407
0.095146
0.040027
0.041189
0.006431
0.064752
0.063223
0.040376
0.044137
0.049227
0.052237
0.049733
0.044371
0.054544
0.027305
0.036636
0.083012
0.063488
0.031744
0.064957
0.063233
0.060642
0.019014
0.063125
0.068562
0.018003
0.051065
0.026714
0.037438
0.015175
0.030815
0.007097
0.005037
0.048501
0.039621
0.044153
0.041666
0.032863
0.022620
0.067436
0.007090
0.013012
0.043568
0.064702
0.066734
0.082800
0.059539
0.041686
0.054675
0.015691
0.063110
0.065865
0.046430
0.133508
0.135093
0.032644
0.122025
0.014274
0.128731
0.022859
0.026706
0.035435
0.021810
0.010345
0.046729
0.007290
0.013226
0.007390
0.014304
0.072112
0.028151
0.025361
0.051849
0.054212
0.054392
0.052355
0.052015
0.057099
0.069401
0.030801
0.034415
0.028292
0.026434
0.018141
0.027929
0.027513
0.028002
0.042620
0.014221
0.018991
0.017435
0.091335
0.038079
0.053689
0.034038
0.050468
0.077939
0.073246
0.091286
0.037395
0.030040
0.023782
0.029137
0.040509
0.057086
0.016832
0.015315
0.025772
0.024951
0.009156
0.015601
0.016510
0.012256
0.024863
0.034289
0.021615
0.012677
0.035316
0.031387
0.029756
0.021142
0.032047
0.034410
0.023396
0.012195
0.041013
0.042796
0.011914
0.017484
0.062453
0.045495
0.009877
0.089727
0.095873
0.097185
0.167478
0.021081
0.157817
0.015620
0.046170
0.041683
0.043395
0.028330
0.031146
0.014916
0.025490
0.020193
0.026232
0.020960
0.028776
0.075744
0.014929
0.094319
0.016170
0.087808
0.029495
0.015508
0.009441
0.017324
0.019221
0.031038
0.029563
0.072280
0.060497
0.062545
0.053105
0.172318
0.174146
0.026747
0.025936
0.055470
0.096722
0.080777
0.107771
0.131273
0.152466
0.085204
0.071918
0.057615
0.044372
0.102039
0.074574
0.090964
0.101001
0.028153
0.001822
0.052881
0.026859
0.009344
0.012431
0.181202
0.183267
0.080398
0.045890
0.033152
0.053731
0.012195
0.072495
0.101779
0.130502
0.073461
0.154403
0.013225
0.063642
0.016236
0.040519
0.097500
0.096068
0.087430
0.093573
0.005770
0.022029
0.019591
0.008017
0.013039
0.046062
0.037244
0.048781
0.048476
0.050701
0.012126
0.043641
0.013376
0.028924
0.031885
0.017695
0.022786
0.029480
0.021495
0.014146
0.056101
0.010244
0.056154
0.054814
0.065449
0.030494
0.035274
0.022353
0.014341
0.061120
0.056973
0.055339
0.046464
0.022799
0.034218
0.033959
0.053010
0.028762
0.051088
0.053469
0.060097
0.033887
0.037461
0.031543
0.040975
0.022711
0.023846
0.033221
0.025337
0.108216
0.014491
0.099841
0.013520
0.076725
0.028512
0.075134
0.074146
0.012342
0.008328
0.018706
0.024683
0.011290
0.005882
0.027590
0.021913
0.015687
0.011541
0.023900
0.019589
0.032226
0.037121
0.008442
0.008419
0.073255
0.076871
0.062994
0.043138
0.073855
0.031006
0.044252
0.039897
0.029345
0.032894
0.032010
0.036200
0.043319
0.029324
0.022474
0.075902
0.009012
0.077473
0.081106
0.085558
0.053687
0.025524
0.056708
0.061925
0.035451
0.042759
0.042196
0.050776
0.006959
0.010808
0.021812
0.028991
0.040581
0.020101
0.015479
0.016812
0.012154
0.078503
0.029342
0.031785
0.038917
0.028284
0.031082
0.038726
0.006860
0.006248
0.020934
0.019219
0.082419
0.048777
0.074197
0.067531
0.058478
0.040052
0.057822
0.053431
0.013306
0.008000
0.044857
0.055913
0.032061
0.026460
0.025080
0.024918
0.027272
0.020198
0.018050
0.027175
0.013964
0.084406
0.089053
0.087481
0.036202
0.043545
0.144627
0.018074
0.134647
0.014007
0.045765
0.055753
0.059863
0.061625
0.057080
0.066367
0.065544
0.069346
0.033494
0.024621
0.026904
0.033235
0.067305
0.072994
0.052208
0.040950
0.009981
0.008206
0.049739
0.047760
0.027713
0.042754
0.026790
0.022928
0.029834
0.040110
0.029534
0.027069
0.024368
0.032842
0.037061
0.106670
0.109684
0.040809
0.094701
0.023722
0.105917
0.035480
0.036353
0.030208
0.033427
0.054905
0.020166
0.012487
0.021317
0.028437
0.045601
0.039938
0.061676
0.008928
0.008089
0.009517
0.011259
0.014143
0.013385
0.030751
0.033239
0.043298
0.033284
0.074689
0.085662
0.081266
0.077564
0.012481
0.070333
0.016904
0.043028
0.047904
0.022927
0.026081
0.027051
0.018731
0.009831
0.013131
0.015855
0.009475
0.072586
0.012496
0.071680
0.077241
0.017394
0.010445
0.013530
0.010795
0.009517
0.041146
0.036193
0.055695
0.019735
0.010557
0.064763
0.091666
0.033710
0.083938
0.081298
0.050991
0.022843
0.026331
0.071344
0.044069
0.067420
0.061331
0.009261
0.040882
0.046922
0.006522
0.004771
0.023755
0.019672
0.035637
0.033376
0.079554
0.052328
0.047444
0.027818
0.030621
0.009738
0.016005
0.042283
0.028359
0.032998
0.032904
0.009708
0.015352
0.088893
0.033004
0.031975
0.027338
0.080013
0.070826
0.022542
0.020961
0.047995
0.016349
0.017180
0.014975
0.025888
0.086920
0.091049
0.058901
0.076993
0.092670
0.044030
0.058128
0.053613
0.069391
0.032209
0.034294
0.040876
0.034145
0.038014
0.043232
0.009903
0.012816
0.011486
0.008924
0.005396
0.014594
0.030299
0.032333
0.025020
0.022416
0.038257
0.026180
0.041824
0.032437
0.029991
0.029521
0.032417
0.094743
0.020314
0.087627
0.096552
0.041072
0.039033
0.006661
0.064725
0.063280
0.040356
0.043783
0.048914
0.051894
0.050658
0.050335
0.054189
0.027464
0.036396
0.084494
0.064500
0.031187
0.064630
0.064109
0.061576
0.018821
0.063012
0.068317
0.018514
0.050544
0.027022
0.037793
0.007395
0.005248
0.049347
0.039366
0.044026
0.041591
0.034371
0.022975
0.067731
0.064290
0.066110
0.081739
0.058868
0.021902
0.041774
0.054523
0.016187
0.063901
0.065901
0.048009
0.133265
0.134845
0.032437
0.121698
0.013506
0.128607
0.022424
0.026285
0.034823
0.033887
0.010370
0.047583
0.025595
0.008104
0.014017
0.045541
0.009269
0.014196
0.073106
0.052778
0.054134
0.055035
0.028294
0.043508
0.056800
0.068838
0.035513
0.034306
0.028456
0.025968
0.014967
0.017995
0.029423
0.026903
0.014324
0.019348
0.017403
0.091404
0.038009
0.053646
0.032400
0.033834
0.049991
0.079386
0.074148
0.092410
0.037350
0.030908
0.023986
0.015115
0.029435
0.040861
0.056331
0.016881
0.025741
0.024759
0.008697
0.015092
0.016211
0.013069
0.011534
0.018622
0.021985
0.013215
0.035081
0.031889
0.029235
0.021255
0.028663
0.031969
0.023281
0.011464
0.040459
0.041763
0.011835
0.016766
0.062129
0.046038
0.010033
0.090364
0.096219
0.098046
0.167480
0.020324
0.157516
0.014535
0.046540
0.042356
0.028457
0.031017
0.015821
0.026153
0.033015
0.039445
0.020433
0.026407
0.020950
0.029997
0.076013
0.014945
0.093918
0.015577
0.087945
0.029206
0.015707
0.009943
0.017443
0.019479
0.031399
0.071298
0.059987
0.063125
0.052438
0.005382
0.007662
0.180251
0.182666
0.075947
0.045239
0.087115
0.069251
0.048552
0.026817
0.070421
0.099035
0.127862
0.152100
0.020458
0.057552
0.006399
0.034169
0.102877
0.092549
0.100801
0.106943
