# vtk DataFile Version 2.0
Unstructured Grid Example
ASCII
DATASET UNSTRUCTURED_GRID
POINTS 1689 float
-0.036740 0.028141 -0.003045 
0.963260 -0.022959 0.000470 
1.014360 0.977041 0.003903 
0.014360 1.028141 0.000388 
-0.037092 0.027798 0.096955 
0.962908 -0.023302 0.100470 
1.014008 0.976698 0.103903 
0.014008 1.027798 0.100388 
-0.034537 0.077798 0.097126 
-0.031982 0.127798 0.097298 
-0.029427 0.177798 0.097470 
-0.026872 0.227798 0.097641 
-0.024317 0.277798 0.097813 
-0.021762 0.327798 0.097985 
-0.019207 0.377798 0.098156 
-0.016652 0.427798 0.098328 
-0.014097 0.477798 0.098500 
-0.011542 0.527798 0.098671 
-0.008987 0.577798 0.098843 
-0.006432 0.627798 0.099015 
-0.003877 0.677798 0.099186 
-0.001322 0.727798 0.099358 
0.001233 0.777798 0.099530 
0.003788 0.827798 0.099701 
0.006343 0.877798 0.099873 
0.008898 0.927798 0.100045 
0.011453 0.977798 0.100216 
-0.034185 0.078141 -0.002874 
-0.031630 0.128141 -0.002702 
-0.029075 0.178141 -0.002530 
-0.026520 0.228141 -0.002359 
-0.023965 0.278141 -0.002187 
-0.021410 0.328141 -0.002015 
-0.018855 0.378141 -0.001844 
-0.016300 0.428141 -0.001672 
-0.013745 0.478141 -0.001500 
-0.011190 0.528141 -0.001329 
-0.008635 0.578141 -0.001157 
-0.006080 0.628141 -0.000985 
-0.003525 0.678141 -0.000814 
-0.000970 0.728141 -0.000642 
0.001585 0.778141 -0.000470 
0.004140 0.828141 -0.000299 
0.006695 0.878141 -0.000127 
0.009250 0.928141 0.000045 
0.011805 0.978141 0.000216 
-0.036916 0.027969 0.046955 
0.014184 1.027969 0.050388 
0.012908 0.025243 0.097130 
0.062908 0.022688 0.097306 
0.112908 0.020133 0.097482 
0.162908 0.017578 0.097658 
0.212908 0.015023 0.097833 
0.262908 0.012468 0.098009 
0.312908 0.009913 0.098185 
0.362908 0.007358 0.098361 
0.412908 0.004803 0.098536 
0.462908 0.002248 0.098712 
0.512908 -0.000307 0.098888 
0.562908 -0.002862 0.099064 
0.612908 -0.005417 0.099239 
0.662908 -0.007972 0.099415 
0.712908 -0.010527 0.099591 
0.762908 -0.013082 0.099767 
0.812908 -0.015637 0.099943 
0.862908 -0.018192 0.100118 
0.912908 -0.020747 0.100294 
0.013260 0.025586 -0.002870 
0.063260 0.023031 -0.002694 
0.113260 0.020476 -0.002518 
0.163260 0.017921 -0.002342 
0.213260 0.015366 -0.002167 
0.263260 0.012811 -0.001991 
0.313260 0.010256 -0.001815 
0.363260 0.007701 -0.001639 
0.413260 0.005146 -0.001464 
0.463260 0.002591 -0.001288 
0.513260 0.000036 -0.001112 
0.563260 -0.002519 -0.000936 
0.613260 -0.005074 -0.000761 
0.663260 -0.007629 -0.000585 
0.713260 -0.010184 -0.000409 
0.763260 -0.012739 -0.000233 
0.813260 -0.015294 -0.000057 
0.863260 -0.017849 0.000118 
0.913260 -0.020404 0.000294 
0.963084 -0.023131 0.050470 
0.965463 0.026698 0.100641 
0.968018 0.076698 0.100813 
0.970573 0.126698 0.100985 
0.973128 0.176698 0.101156 
0.975683 0.226698 0.101328 
0.978238 0.276698 0.101500 
0.980793 0.326698 0.101671 
0.983348 0.376698 0.101843 
0.985903 0.426698 0.102015 
0.988458 0.476698 0.102187 
0.991013 0.526698 0.102358 
0.993568 0.576698 0.102530 
0.996123 0.626698 0.102702 
0.998678 0.676698 0.102873 
1.001233 0.726698 0.103045 
1.003788 0.776698 0.103217 
1.006343 0.826698 0.103388 
1.008898 0.876698 0.103560 
1.011453 0.926698 0.103732 
0.965815 0.027041 0.000641 
0.968370 0.077041 0.000813 
0.970925 0.127041 0.000985 
0.973480 0.177041 0.001156 
0.976035 0.227041 0.001328 
0.978590 0.277041 0.001500 
0.981145 0.327041 0.001671 
0.983700 0.377041 0.001843 
0.986255 0.427041 0.002015 
0.988810 0.477041 0.002187 
0.991365 0.527041 0.002358 
0.993920 0.577041 0.002530 
0.996475 0.627041 0.002702 
0.999030 0.677041 0.002873 
1.001585 0.727041 0.003045 
1.004140 0.777041 0.003217 
1.006695 0.827041 0.003388 
1.009250 0.877041 0.003560 
1.011805 0.927041 0.003732 
1.014184 0.976869 0.053903 
0.964008 0.979253 0.103727 
0.914008 0.981808 0.103552 
0.864008 0.984363 0.103376 
0.814008 0.986918 0.103200 
0.764008 0.989473 0.103024 
0.714008 0.992028 0.102849 
0.664008 0.994583 0.102673 
0.614008 0.997138 0.102497 
0.564008 0.999693 0.102321 
0.514008 1.002248 0.102146 
0.464008 1.004803 0.101970 
0.414008 1.007358 0.101794 
0.364008 1.009913 0.101618 
0.314008 1.012468 0.101443 
0.264008 1.015023 0.101267 
0.214008 1.017578 0.101091 
0.164008 1.020133 0.100915 
0.114008 1.022688 0.100739 
0.064008 1.025243 0.100564 
0.964360 0.979596 0.003727 
0.914360 0.982151 0.003552 
0.864360 0.984706 0.003376 
0.814360 0.987261 0.003200 
0.764360 0.989816 0.003024 
0.714360 0.992371 0.002849 
0.664360 0.994926 0.002673 
0.614360 0.997481 0.002497 
0.564360 1.000036 0.002321 
0.514360 1.002591 0.002146 
0.464360 1.005146 0.001970 
0.414360 1.007701 0.001794 
0.364360 1.010256 0.001618 
0.314360 1.012811 0.001443 
0.264360 1.015366 0.001267 
0.214360 1.017921 0.001091 
0.164360 1.020476 0.000915 
0.114360 1.023031 0.000739 
0.064360 1.025586 0.000564 
0.689184 0.993477 0.052761 
0.589189 0.998592 0.051020 
0.789179 0.988362 0.054501 
0.489184 1.003697 0.052058 
0.889645 0.983231 0.054160 
0.389179 1.008802 0.053095 
0.289184 1.013917 0.051355 
0.189184 1.019027 0.051003 
0.086188 1.024290 0.050621 
0.943984 0.980458 0.053136 
0.439176 1.006244 0.054120 
0.539192 1.001149 0.049996 
0.839227 0.985801 0.055603 
0.739176 0.990914 0.055174 
0.639192 0.996039 0.050347 
0.239191 1.016479 0.049096 
0.339176 1.011354 0.053768 
0.138844 1.021592 0.052907 
0.047038 1.026236 0.065473 
0.982397 0.978438 0.069150 
0.984239 0.978465 0.035527 
0.045292 1.026448 0.031539 
0.488917 0.502348 0.100431 
0.270668 0.307915 0.098997 
0.705093 0.696856 0.101858 
0.688086 0.282591 0.100451 
0.288827 0.721897 0.100407 
0.503438 0.784595 0.101400 
0.769564 0.485824 0.101410 
0.473366 0.219899 0.099457 
0.211539 0.522914 0.099477 
0.140082 0.189055 0.098130 
0.803316 0.155082 0.100461 
0.835624 0.817106 0.102729 
0.173600 0.849413 0.100397 
0.561048 0.640401 0.101144 
0.415673 0.362319 0.099707 
0.630822 0.427806 0.100711 
0.346100 0.576690 0.100146 
0.644841 0.841797 0.102106 
0.331425 0.162896 0.098750 
0.132535 0.380817 0.098725 
0.828058 0.345369 0.101170 
0.842919 0.626103 0.102136 
0.611926 0.148241 0.099735 
0.364991 0.856254 0.101123 
0.148866 0.654469 0.099673 
0.670377 0.573178 0.101329 
0.306855 0.431808 0.099532 
0.540544 0.329195 0.100059 
0.436357 0.675297 0.100799 
0.542419 0.883185 0.101864 
0.434101 0.121546 0.098993 
0.869638 0.448464 0.101657 
0.106218 0.487079 0.098973 
0.753001 0.885889 0.102648 
0.084943 0.279130 0.098219 
0.227401 0.112462 0.098203 
0.872106 0.237640 0.100982 
0.889353 0.719255 0.102609 
0.705466 0.101353 0.099927 
0.271451 0.903142 0.100931 
0.112228 0.760695 0.099883 
0.601606 0.738883 0.101613 
0.377949 0.263126 0.099246 
0.723017 0.384074 0.100909 
0.253097 0.618837 0.099941 
0.592046 0.521490 0.100873 
0.384867 0.483010 0.099985 
0.588025 0.250378 0.099978 
0.388891 0.754117 0.100880 
0.065377 0.117183 0.097622 
0.870042 0.075969 0.100450 
0.914737 0.883831 0.103236 
0.107884 0.928505 0.100411 
0.446345 0.908848 0.101593 
0.895758 0.544597 0.102066 
0.530571 0.095647 0.099264 
0.088335 0.585671 0.099227 
0.232420 0.216118 0.098558 
0.744570 0.787739 0.102298 
0.774184 0.244853 0.100645 
0.208676 0.763835 0.100248 
0.173648 0.295793 0.098600 
0.798062 0.702949 0.102220 
0.687432 0.197437 0.100172 
0.289484 0.807059 0.100686 
0.486930 0.413491 0.100135 
0.490147 0.591127 0.100724 
0.223387 0.381850 0.099062 
0.754555 0.622280 0.101798 
0.683115 0.490650 0.101108 
0.295094 0.514035 0.099755 
0.621993 0.337715 0.100386 
0.354992 0.667185 0.100473 
0.053777 0.207106 0.097871 
0.146149 0.103497 0.097875 
0.826881 0.904625 0.102980 
0.890835 0.163825 0.100812 
0.921333 0.801743 0.102994 
0.787953 0.069373 0.100127 
0.086081 0.840670 0.100046 
0.194366 0.931609 0.100740 
0.647171 0.649517 0.101491 
0.514188 0.700498 0.101167 
0.331156 0.353041 0.099366 
0.463559 0.306477 0.099702 
0.618791 0.914373 0.102246 
0.357739 0.090348 0.098611 
0.060684 0.418885 0.098584 
0.900562 0.371973 0.101523 
0.922009 0.641460 0.102477 
0.627670 0.068697 0.099534 
0.349246 0.935798 0.101323 
0.072102 0.685509 0.099491 
0.436595 0.827251 0.101293 
0.813663 0.550651 0.101783 
0.540322 0.177245 0.099565 
0.170884 0.585658 0.099531 
0.175729 0.449845 0.099108 
0.578557 0.817433 0.101783 
0.397770 0.187434 0.099073 
0.803693 0.413128 0.101300 
0.552109 0.456620 0.100515 
0.424816 0.547913 0.100343 
0.668685 0.774928 0.101977 
0.754618 0.320313 0.100818 
0.220692 0.684141 0.100034 
0.308902 0.229780 0.098884 
0.687158 0.923849 0.102529 
0.047633 0.341338 0.098284 
0.289689 0.080643 0.098329 
0.910066 0.303484 0.101336 
0.737749 0.548972 0.101498 
0.448322 0.741906 0.101059 
0.528603 0.262546 0.099799 
0.607312 0.590184 0.101152 
0.369009 0.414970 0.099706 
0.243555 0.458479 0.099385 
0.569518 0.391986 0.100369 
0.407459 0.612523 0.100489 
0.435547 0.432026 0.100006 
0.541318 0.572519 0.100852 
0.496124 0.938240 0.101872 
0.924526 0.494613 0.102009 
0.480790 0.066261 0.098986 
0.054092 0.539027 0.098949 
0.506316 0.840967 0.101594 
0.825249 0.491353 0.101633 
0.470468 0.163624 0.099264 
0.141971 0.520442 0.099212 
0.701669 0.834964 0.102294 
0.275245 0.169627 0.098565 
0.820860 0.288524 0.100959 
0.148862 0.721722 0.099891 
0.134732 0.248785 0.098304 
0.844253 0.759120 0.102572 
0.745330 0.146453 0.100220 
0.231586 0.858043 0.100638 
0.644480 0.231586 0.100125 
0.332436 0.772910 0.100733 
0.688425 0.351333 0.100675 
0.288362 0.652911 0.100181 
0.934283 0.587016 0.102345 
0.573201 0.056500 0.099294 
0.403716 0.947995 0.101564 
0.053792 0.632138 0.099250 
0.728219 0.454917 0.101158 
0.255398 0.548488 0.099721 
0.019705 0.079071 0.097330 
0.911634 0.033494 0.100465 
0.957212 0.925424 0.103528 
0.065151 0.971669 0.100394 
0.783685 0.933722 0.102916 
0.031084 0.257371 0.097951 
0.193549 0.071416 0.097945 
0.946532 0.750949 0.102922 
0.737160 0.044174 0.099858 
0.239889 0.959490 0.100998 
0.919934 0.207008 0.101059 
0.057955 0.796327 0.099799 
0.192165 0.175742 0.098279 
0.781621 0.836002 0.102591 
0.822236 0.208957 0.100706 
0.157886 0.795265 0.100163 
0.563157 0.947565 0.102149 
[...]
POINT_DATA 1689
SCALARS u float 1
LOOKUP_TABLE default
0.098157
0.091696
0.057904
0.066868
0.098311
0.092712
0.058132
0.065884
0.094025
0.089862
0.085839
0.081977
0.078301
0.074836
0.071614
0.068670
0.066039
0.063762
0.061877
0.060421
0.059425
0.058913
0.058897
0.059378
0.060344
0.061772
0.063630
0.093907
0.089783
0.085804
0.081989
0.078365
0.074957
0.071796
0.068918
0.066358
0.064155
0.062346
0.060967
0.060048
0.059608
0.059660
0.060202
0.061220
0.062692
0.064587
0.098232
0.066376
0.095149
0.092198
0.089478
0.087011
0.084819
0.082924
0.081346
0.080105
0.079217
0.078692
0.078539
0.078759
0.079350
0.080303
0.081606
0.083242
0.085192
0.087435
0.089949
0.094948
0.091948
0.089177
0.086656
0.084408
0.082456
0.080821
0.079522
0.078577
0.077997
0.077792
0.077964
0.078511
0.079425
0.080693
0.082300
0.084225
0.086448
0.088945
0.092204
0.088185
0.083765
0.079468
0.075316
0.071334
0.067553
0.064008
0.060740
0.057797
0.055229
0.053093
0.051441
0.050321
0.049769
0.049805
0.050426
0.051612
0.053326
0.055517
0.087163
0.082736
0.078434
0.074278
0.070295
0.066516
0.062976
0.059719
0.056793
0.054252
0.052153
0.050550
0.049491
0.049013
0.049131
0.049841
0.051120
0.052925
0.055205
0.058016
0.053565
0.049172
0.045003
0.041127
0.037634
0.034641
0.032286
0.030718
0.030059
0.030368
0.031617
0.033702
0.036480
0.039806
0.043554
0.047626
0.051944
0.056453
0.061110
0.053391
0.049063
0.044971
0.041187
0.037804
0.034938
0.032725
0.031305
0.030786
0.031214
0.032552
0.034694
0.037503
0.040842
0.044591
0.048657
0.052965
0.057462
0.062107
0.033554
0.030605
0.039378
0.031326
0.047055
0.035505
0.042153
0.050271
0.059546
0.051689
0.033025
0.030503
0.043030
0.036174
0.031660
0.046094
0.038575
0.054694
0.063078
0.055146
0.055237
0.063592
0.024880
0.053979
0.018113
0.050352
0.027575
0.008258
0.035703
0.055189
0.042083
0.072666
0.067720
0.033506
0.042179
0.009719
0.041644
0.033565
0.026767
0.017185
0.065048
0.058060
0.051346
0.034336
0.062820
0.024036
0.043372
0.021592
0.040812
0.042845
0.012954
0.017444
0.066375
0.046337
0.053902
0.028979
0.069285
0.074652
0.063568
0.037715
0.069670
0.035170
0.046785
0.007237
0.053123
0.041718
0.033477
0.022751
0.031359
0.051576
0.017128
0.083782
0.078538
0.044063
0.051946
0.022653
0.042965
0.068101
0.051516
0.064598
0.023188
0.057612
0.036451
0.061371
0.027951
0.059141
0.028889
0.034298
0.015746
0.050828
0.025630
0.029609
0.035304
0.042769
0.021397
0.077220
0.079907
0.036690
0.071354
0.042052
0.075644
0.050988
0.043843
0.014218
0.004895
0.046386
0.046126
0.022415
0.071587
0.061912
0.054356
0.042162
0.071559
0.031054
0.051164
0.016184
0.034939
0.059263
0.043060
0.049742
0.011225
0.060292
0.043992
0.029114
0.023143
0.015066
0.049388
0.035207
0.059339
0.026926
0.067912
0.074989
0.060436
0.028514
0.010713
0.050071
0.016355
0.038537
0.043458
0.036175
0.019193
0.033829
0.016663
0.023845
0.048283
0.071600
0.056673
0.013509
0.039703
0.061263
0.048789
0.021271
0.066791
0.055943
0.042679
0.067984
0.033081
0.066253
0.036662
0.054478
0.023458
0.043380
0.028714
0.045018
0.072380
0.028567
0.053927
0.035473
0.036591
0.090103
0.084675
0.050123
0.058140
0.034819
0.075153
0.080298
0.043999
0.076527
0.041472
0.069241
0.053045
0.070623
0.028816
0.063422
0.042371
0.024461
0.053148
0.073649
0.061164
0.062042
0.033752
0.064463
0.029179
0.012376
0.052076
0.040380
0.009668
0.054798
0.003953
0.051962
0.049075
0.019525
0.008058
0.047299
0.083232
0.085524
0.077374
0.042721
0.080846
0.046829
0.055187
0.051213
0.024260
0.035410
0.038823
0.045526
0.016810
0.038083
0.028718
0.016649
0.065821
0.048839
0.059525
0.022627
0.055511
0.030836
0.055185
0.023600
0.059107
0.011833
0.046199
0.043964
0.074993
0.053095
0.036687
0.078283
0.073413
0.039227
0.045799
0.019027
0.057721
0.028287
0.029680
0.067300
0.028428
0.062369
0.037550
0.048905
0.022087
0.025153
0.039413
0.067072
0.048275
0.031121
0.024383
0.026632
0.056811
0.029160
0.059115
0.024503
0.073483
0.022511
0.070147
0.056525
0.027589
0.048339
0.073837
0.057076
0.037114
0.070733
0.041191
0.019234
0.044294
0.066861
0.052493
0.062815
0.013651
0.054731
0.029124
0.021165
0.052970
0.031295
0.072651
0.078623
0.065169
0.038718
0.033606
0.068226
0.046262
0.014502
0.038075
0.050812
0.033468
0.031308
0.027380
0.066778
0.076401
0.059493
0.045143
0.026349
0.023889
0.078146
0.038190
0.072758
0.048708
0.074939
0.058181
0.017410
0.052106
0.032530
0.080787
0.084396
0.074540
0.039993
0.046863
0.080231
0.055697
0.047150
0.045562
0.005726
0.045186
0.040591
0.031298
0.039643
0.040176
0.020333
0.029579
0.040503
0.037467
0.017587
0.022874
0.033019
0.047850
0.037362
0.012740
0.006327
0.008887
0.045962
0.050332
0.012660
0.017176
0.041798
0.035092
0.046341
0.076108
0.055464
0.056036
0.007455
0.037391
0.028218
0.066931
0.032128
0.066796
0.048026
0.013195
0.062214
0.043609
0.025795
0.064637
0.075152
0.056161
0.017463
0.039656
0.063022
0.047525
0.020338
0.036651
0.062752
0.045164
0.066117
0.072634
0.045603
0.032837
0.033137
0.018941
0.039021
0.071969
0.039566
0.045179
0.020352
0.069006
0.053574
0.052627
0.074864
0.026188
0.060926
0.016932
0.051571
0.040005
0.038919
0.069610
0.032195
0.057281
0.087782
0.088952
0.082063
0.047428
0.083904
0.049563
0.057850
0.055144
0.058048
0.043835
0.062538
0.070148
0.015552
0.045559
0.025095
0.008471
0.032084
0.023433
0.048099
0.012588
0.057811
0.044208
0.050075
0.039698
0.020869
0.051095
0.004022
0.049608
0.037733
0.014147
0.026965
0.026812
0.055107
0.011989
0.030490
0.070613
0.078952
0.063390
0.013829
0.047397
0.041780
0.062455
0.051407
0.075441
0.059974
0.027753
0.055557
0.021002
0.029011
0.018797
0.053442
0.037524
0.075068
0.062619
0.034612
0.018313
0.027265
0.060389
0.063638
0.033406
0.041052
0.025266
0.065472
0.031857
0.063938
0.032296
0.046890
0.012813
0.019855
0.037297
0.070327
0.025404
0.060113
0.040983
0.025974
0.072646
0.060360
0.046710
0.046900
0.075496
0.055959
0.032724
0.093925
0.088414
0.053843
0.061708
0.053399
0.009794
0.019214
0.044551
0.047764
0.030002
0.037753
0.033451
0.009925
0.042330
0.059134
0.023927
0.056971
0.072555
0.081723
0.076894
0.042756
0.047686
0.053698
0.026826
0.020400
0.030898
0.069931
0.021737
0.070541
0.049302
0.057274
0.076859
0.085755
0.068892
0.055957
0.061809
0.049578
0.051744
0.049732
0.052200
0.054395
0.053604
0.065208
0.072761
0.081106
0.058694
0.050693
0.049369
0.050398
0.089359
0.056318
0.056293
0.089245
0.088047
0.093741
0.083593
0.079296
0.078207
0.080463
0.078596
0.088322
0.083703
0.081793
0.078232
0.085678
0.090696
0.078558
0.081938
0.079334
0.085785
0.080360
0.090492
0.096140
0.096236
0.090273
0.024299
0.053699
0.017319
0.049444
0.028223
0.009120
0.034686
0.054421
0.042281
0.072472
0.066755
0.033133
0.043079
0.008801
0.041186
0.032587
0.026786
0.017430
0.064580
0.058112
0.050363
0.033362
0.061958
0.025116
0.043895
0.020627
0.040709
0.041993
0.013303
0.018183
0.065685
0.045237
0.054140
0.028986
0.069261
0.074400
0.062579
0.037121
0.068837
0.036160
0.047542
0.006912
0.052632
0.040694
0.033766
0.021777
0.031028
0.050779
0.017994
0.083544
0.077470
0.043759
0.052899
0.023651
0.042002
0.067307
0.051971
0.064355
0.022858
0.056535
0.037148
0.061231
0.027176
0.058181
0.029815
0.033623
0.015342
0.050841
0.024600
0.028587
0.035170
0.041935
0.021803
0.077186
0.079670
0.036568
0.070344
0.041627
0.074710
0.051850
0.044881
0.013208
0.005004
0.046022
0.045437
0.022889
0.071023
0.062037
0.053293
0.041303
0.070675
0.032089
0.051879
0.017317
0.033893
0.058534
0.043394
0.049774
0.011699
0.059693
0.042953
0.028314
0.022899
0.014831
0.048499
0.035628
0.059060
0.027198
0.067952
0.074566
0.059420
0.027487
0.011566
0.049375
0.015325
0.038096
0.043460
0.035371
0.019232
0.033351
0.015944
0.024739
0.047287
0.070879
0.057046
0.014422
0.038699
0.060559
0.049051
0.021273
0.066496
0.054914
0.043373
0.067820
0.032497
0.065299
0.037610
0.053594
0.024304
0.042456
0.029101
0.044110
0.071564
0.029585
0.054471
0.034443
0.036801
0.090023
0.083752
0.049856
0.059121
0.034847
0.075158
0.079980
0.043384
0.075587
0.042483
0.068223
0.053838
0.070460
0.028551
0.062407
0.043181
0.025147
0.052111
0.072988
0.061446
0.061960
0.032934
0.063639
0.030262
0.011558
0.051389
0.039672
0.009287
0.054933
0.004515
0.051575
0.048878
0.018580
0.007155
0.046740
0.083203
0.085357
0.076420
0.042627
0.079946
0.046481
0.056101
0.052207
0.023251
0.035171
0.039216
0.044841
0.017450
0.037109
0.028881
0.017100
0.065187
0.047728
0.059212
0.021933
0.054572
0.031631
0.054970
0.022733
0.058611
0.011825
0.045187
0.043177
0.074053
0.053864
0.037734
0.078117
0.072441
0.038848
0.046762
0.020094
0.056913
0.027362
0.029619
0.067076
0.027988
0.061415
0.038411
0.048060
0.022772
0.026199
0.038507
0.066247
0.048812
0.030187
0.023621
0.026248
0.056833
0.028324
0.058261
0.025482
0.073353
0.022616
0.069655
0.055474
0.028563
0.047393
0.073077
0.057538
0.036638
0.069792
0.042150
0.020163
0.043289
0.066155
0.052826
0.062883
0.014651
0.053985
0.028428
0.020735
0.052967
0.031474
0.072719
0.078229
0.064143
0.038999
0.033355
0.067212
0.047125
0.014426
0.037346
0.050986
0.032496
0.031458
0.027806
0.066929
0.075874
0.058458
0.045049
0.025293
0.022867
0.078016
0.037936
0.071770
0.049650
0.074839
0.057831
0.016889
0.051145
0.033217
0.080740
0.084087
0.073508
0.039935
0.046335
0.079270
0.056553
0.048103
0.046238
0.004976
0.044794
0.039582
0.030271
0.039543
0.040224
0.019705
0.029044
0.039753
0.036660
0.017855
0.023053
0.032022
0.047895
0.036844
0.012057
0.007178
0.009378
0.045272
0.049593
0.011632
0.016087
0.041408
0.036136
0.045504
0.075225
0.056156
0.055462
0.007749
0.036543
0.029232
0.066063
0.032092
0.065877
0.048843
0.013838
0.061488
0.042489
0.026360
0.064915
0.074537
0.055134
0.018487
0.038666
0.062275
0.047886
0.021465
0.035697
0.061987
0.045597
0.066066
0.072591
0.044636
0.033223
0.032349
0.018722
0.038406
0.070989
0.040490
0.045267
0.020639
0.068441
0.052525
0.051629
0.074193
0.027002
0.061307
0.016814
0.050564
0.040568
0.038088
0.068653
0.033167
0.056648
0.087736
0.088822
0.081125
0.047228
0.082989
0.049214
0.058840
0.056188
0.058146
0.043218
0.062240
0.069424
0.014693
0.044728
0.025643
0.009257
0.031234
0.023415
0.048842
0.013622
0.057102
0.044475
0.049793
0.038680
0.021394
0.049992
0.003413
0.049186
0.037339
0.013235
0.026110
0.026636
0.054730
0.011585
0.030786
0.070763
0.078456
0.062324
0.014161
0.046374
0.041431
0.061914
0.050435
0.074725
0.060388
0.028654
0.054693
0.021889
0.028028
0.018470
0.052460
0.038120
0.074888
0.062252
0.034201
0.017409
0.026627
0.059430
0.063474
0.034154
0.040236
0.025551
0.065424
0.031052
0.062986
0.033291
0.046042
0.013409
0.018889
0.037005
0.070106
0.025293
0.059103
0.041650
0.026167
0.072429
0.059410
0.046884
0.046014
0.074631
0.056523
0.033724
0.093764
0.087401
0.053596
0.062684
0.052691
0.010767
0.018170
0.044280
0.046841
0.030575
0.036775
0.033615
0.009964
0.041588
0.059184
0.024200
0.055900
0.071995
0.081618
0.076047
0.042387
0.048651
0.052796
0.027527
0.019603
0.030507
0.070015
0.022458
0.069799
0.048218
0.057522
0.080144
0.092141
0.073255
0.065008
0.059206
0.060150
0.060234
0.063256
0.084004
0.070121
0.062919
0.076582
0.059489
0.059422
0.061470
0.061308
0.067383
0.087901
0.064700
0.095432
0.095544
0.065132
0.033319
0.029936
0.039888
0.027777
0.023642
0.035591
0.032476
0.054273
0.052293
0.030557
0.036459
0.043537
0.040999
0.029899
0.032542
0.050244
0.047356
0.025701
0.021151
0.028284
0.026304
0.038950
0.046325
0.058390
0.025591
0.026626
0.042547
0.051308
0.056556
0.049168
0.076455
0.073887
0.049022
0.045909
0.041465
0.044547
0.039944
0.044529
0.045996
0.080257
0.044988
0.045041
0.047384
0.072748
0.084141
0.065680
0.062668
0.051136
0.059214
0.055850
0.047266
0.069150
0.062360
0.053567
0.056272
0.044892
0.081817
0.040178
0.055740
0.077655
0.054729
0.011996
0.071844
0.067447
0.054015
0.067506
0.026947
0.068827
0.030899
0.016558
0.048161
0.018019
0.034080
0.038511
0.031897
0.036454
0.049907
0.030625
0.016111
0.049148
0.043556
0.053124
0.014201
0.068090
0.031457
0.040494
0.059541
0.056999
0.059030
0.023460
0.026621
0.026271
0.036321
0.089125
0.058873
0.031410
0.062816
0.050477
0.055705
0.004078
0.061941
0.057879
0.039486
0.032737
0.053443
0.034925
0.004123
0.029844
0.025167
0.026923
0.047054
0.025670
0.022004
0.023787
0.064568
0.012207
0.046229
0.042837
0.061543
0.036102
0.033283
0.044504
0.018259
0.071811
0.016179
0.037146
0.033867
0.039982
0.035912
0.063553
0.026023
0.073563
0.060793
0.075340
0.072466
0.078950
0.063222
0.029913
0.052718
0.073449
0.046782
0.057898
0.043984
0.058938
0.012073
0.031775
0.055401
0.044084
0.040060
0.017413
0.052984
0.029745
0.050667
0.022261
0.073524
0.020346
0.007989
0.042709
0.027666
0.049248
0.030310
0.013311
0.016916
0.044399
0.044053
0.007428
0.034611
0.032725
0.022770
0.067408
0.047194
0.054509
0.080049
0.041549
0.068483
0.052768
0.037103
0.070042
0.049401
0.046986
0.029771
0.045686
0.036862
0.040706
0.042468
0.021100
0.039694
0.019736
0.021671
0.030504
0.072637
0.048096
0.030075
0.019859
0.062507
0.037065
0.045050
0.038955
0.030255
0.039168
0.053269
0.048797
0.028473
0.068757
0.054522
0.040492
0.071789
0.070275
0.062245
0.038931
0.014024
0.007390
0.048660
0.024216
0.071655
0.033393
0.048554
0.034421
0.041147
0.026052
0.038225
0.018293
0.050964
0.039449
0.012242
0.058628
0.011631
0.049819
0.046555
0.063083
0.004637
0.070162
0.068947
0.074592
0.065758
0.010555
0.004619
0.007677
0.044596
0.048686
0.011663
0.040358
0.059420
0.016675
0.017689
0.027928
0.032199
0.036555
0.021021
0.009834
0.065275
0.044696
0.053195
0.012601
0.016948
0.020503
0.014028
0.020383
0.018023
0.052677
0.059177
0.021188
0.022256
0.025739
0.081858
0.055210
0.075025
0.052768
0.085444
0.078380
0.065886
0.056757
0.052744
0.053897
0.055049
0.086460
0.052211
0.016082
0.036337
0.058228
0.017075
0.053109
0.021595
0.022548
0.053291
0.035962
0.037810
0.073408
0.029099
0.036981
0.038846
0.071525
0.046310
0.034712
0.067545
0.036129
0.028241
0.048626
0.032663
0.058741
0.071717
0.008288
0.052257
0.038738
0.022623
0.043532
0.081655
0.076112
0.020635
0.035000
0.020607
0.035412
0.021888
0.067104
0.052493
0.040440
0.069781
0.060990
0.026159
0.039524
0.030482
0.077624
0.067306
0.028543
0.061240
0.065279
0.039450
0.031060
0.026178
0.030739
0.007749
0.044068
0.032801
0.042021
0.065065
0.017577
0.043385
0.052973
0.039927
0.025975
0.067347
0.056193
0.048544
0.021591
0.058782
0.065312
0.013472
0.023427
0.069208
0.059860
0.035347
0.033218
0.013397
0.016297
0.032456
0.029277
0.063476
0.030717
0.063651
0.071728
0.022589
0.063374
0.034334
0.050658
0.016479
0.045573
0.039230
0.042329
0.024418
0.027544
0.029755
0.024355
0.051323
0.050034
0.072036
0.010552
0.054984
0.049070
0.053646
0.023365
0.020453
0.026762
0.024175
0.026843
0.008022
0.033707
0.055826
0.049730
0.017330
0.053711
0.016639
0.039749
0.046181
0.030755
0.048295
0.009920
0.046709
0.019614
0.019724
0.044182
0.066297
0.069391
0.075404
0.079546
0.071320
0.035330
0.069037
0.073662
0.043995
0.043284
0.079693
0.043079
0.075578
0.068025
0.056830
0.077786
0.083965
0.035799
0.072583
0.055557
0.061386
0.057052
0.045423
0.051149
0.054414
0.059997
0.040968
0.030428
0.008290
0.012592
0.065995
0.063270
0.026832
0.075999
0.014178
0.017062
0.049342
0.034359
0.058284
0.082661
0.034894
0.064462
0.026174
0.026992
0.057237
0.025193
0.048864
0.042771
0.026422
0.035544
0.036768
0.023582
0.040867
0.062491
0.067117
0.046472
0.062863
0.040613
0.049519
0.045738
0.060122
0.048137
0.057288
0.039949
0.034849
0.072004
0.042884
0.061523
0.074686
