# vtk DataFile Version 2.0
Unstructured Grid Example
ASCII
DATASET UNSTRUCTURED_GRID
POINTS 1221 float
-0.000070 -0.001842 0.006300 
0.998595 -0.005671 0.016090 
0.999141 0.998410 -0.008824 
0.001434 0.999503 -0.005848 
0.001751 0.000318 0.056307 
0.998942 0.004395 0.066018 
0.998842 1.004350 0.041198 
0.001263 1.003008 0.044139 
0.001288 0.050306 0.053806 
0.000652 0.100282 0.051384 
0.000193 0.150009 0.049556 
-0.000140 0.199740 0.049061 
-0.000368 0.249399 0.049773 
-0.000284 0.299515 0.051294 
-0.000065 0.349850 0.052644 
0.000151 0.400409 0.052951 
0.000195 0.450931 0.051542 
0.000235 0.500877 0.049207 
0.000109 0.550533 0.046975 
-0.000051 0.599938 0.045799 
-0.000207 0.649044 0.046798 
-0.000114 0.698620 0.049550 
-0.000016 0.749216 0.052809 
0.000040 0.800112 0.054457 
0.000304 0.851304 0.054239 
0.000594 0.902284 0.051659 
0.000862 0.952935 0.047989 
-0.000243 0.048249 0.003807 
-0.000597 0.098375 0.001315 
-0.000749 0.148968 -0.000339 
-0.000805 0.199787 -0.000932 
-0.000801 0.250324 -0.000166 
-0.000610 0.300677 0.001337 
-0.000322 0.350605 0.002680 
0.000018 0.400057 0.002903 
0.000393 0.449495 0.001496 
0.000547 0.499097 -0.000823 
0.000598 0.549344 -0.003008 
0.000623 0.599707 -0.004225 
0.000183 0.650461 -0.003289 
-0.000194 0.700965 -0.000344 
-0.000626 0.751031 0.002773 
-0.000655 0.800631 0.004709 
-0.000346 0.850078 0.004293 
0.000154 0.899539 0.001814 
0.000875 0.949473 -0.001983 
0.000831 -0.000768 0.031233 
0.001332 1.001248 0.019214 
0.051635 0.000512 0.054171 
0.101442 0.000701 0.051990 
0.150832 0.000903 0.050923 
0.200087 0.001234 0.051008 
0.249546 0.001345 0.051996 
0.299218 0.001362 0.053683 
0.349405 0.001487 0.055834 
0.399609 0.001471 0.057105 
0.450186 0.001351 0.057167 
0.500787 0.001145 0.055820 
0.551009 0.001044 0.053755 
0.600750 0.001013 0.052120 
0.649996 0.001427 0.052097 
0.699302 0.001810 0.053949 
0.748910 0.002849 0.056969 
0.798999 0.003233 0.060049 
0.848960 0.003583 0.062573 
0.898806 0.003549 0.064054 
0.949030 0.004323 0.065659 
0.049876 -0.001409 0.004116 
0.099989 -0.000820 0.002028 
0.150479 -0.000368 0.000909 
0.200605 -0.000139 0.000924 
0.250531 -0.000146 0.001891 
0.300725 -0.000444 0.003585 
0.350401 -0.001032 0.005817 
0.399985 -0.001563 0.007115 
0.449597 -0.001921 0.007200 
0.499427 -0.001939 0.005892 
0.549621 -0.001671 0.003760 
0.600024 -0.001247 0.002105 
0.650531 -0.001032 0.001930 
0.700945 -0.001246 0.004001 
0.750892 -0.001892 0.007156 
0.800520 -0.002326 0.010000 
0.849733 -0.002729 0.012299 
0.899296 -0.003615 0.014094 
0.948854 -0.004992 0.015413 
0.998771 -0.000655 0.040874 
0.999678 0.053961 0.055227 
1.000582 0.102840 0.044517 
1.001398 0.150173 0.038612 
1.001647 0.198739 0.037496 
1.002008 0.247691 0.041375 
1.001190 0.297759 0.048044 
1.000228 0.347946 0.056349 
0.999312 0.400290 0.060311 
0.998988 0.452404 0.058431 
0.999176 0.503146 0.051507 
0.999554 0.552161 0.043916 
1.000267 0.600042 0.039883 
1.000763 0.648052 0.041752 
1.000776 0.698079 0.047321 
1.000483 0.748504 0.053687 
1.000096 0.799681 0.058052 
0.999822 0.851763 0.057777 
0.999688 0.903297 0.053652 
0.999185 0.954083 0.047432 
0.998789 0.044615 0.004934 
0.999086 0.095078 -0.005493 
0.999246 0.148059 -0.011732 
0.999673 0.200072 -0.012260 
0.999778 0.251915 -0.008595 
1.000267 0.303101 -0.001751 
1.000178 0.352472 0.006536 
1.000198 0.400773 0.010481 
0.999902 0.448239 0.008175 
0.999687 0.496975 0.001459 
0.999591 0.547569 -0.006145 
0.999315 0.599123 -0.010010 
0.999968 0.650846 -0.008336 
1.000398 0.701931 -0.002542 
1.000740 0.752138 0.003755 
1.000890 0.800945 0.007656 
1.000736 0.849257 0.008094 
1.000152 0.898501 0.003699 
0.999605 0.948224 -0.002443 
0.999003 1.001375 0.016277 
0.948787 1.003624 0.041304 
0.898995 1.002591 0.041735 
0.849205 1.002045 0.041695 
0.799349 1.001632 0.041813 
0.749611 1.001506 0.041821 
0.699866 1.001064 0.042226 
0.650117 1.001113 0.043204 
0.600467 1.000945 0.044433 
0.550527 1.001104 0.046213 
0.500337 1.000770 0.048262 
0.450011 1.000471 0.049733 
0.399736 1.000337 0.050409 
0.349526 1.000047 0.050504 
0.299527 0.999874 0.049933 
0.249745 1.000020 0.048817 
0.200112 1.000290 0.047596 
0.150655 1.000618 0.046445 
0.101048 1.001423 0.045657 
0.051182 1.002419 0.044726 
0.949145 0.998358 -0.008487 
0.899142 0.997843 -0.008348 
0.849313 0.997985 -0.008224 
0.799524 0.997621 -0.008250 
0.749628 0.997568 -0.008221 
0.699625 0.997770 -0.007933 
0.649584 0.997994 -0.006896 
0.599559 0.998749 -0.005551 
0.549316 0.999184 -0.003744 
0.499286 0.999803 -0.001743 
0.449481 1.000172 -0.000258 
0.399503 1.000015 0.000411 
0.349656 0.999796 0.000490 
0.300071 0.999463 -0.000120 
0.250430 0.999065 -0.001280 
0.200770 0.998915 -0.002649 
0.151004 0.999132 -0.003581 
0.101307 0.999101 -0.004422 
0.051366 0.999263 -0.005261 
0.025638 1.000660 0.013290 
0.021103 1.001794 0.029762 
0.974751 1.000519 0.010170 
0.979117 1.002421 0.026667 
0.481432 1.000335 0.023915 
0.774540 0.999580 0.016851 
0.674923 0.999548 0.017641 
0.525604 1.000197 0.022140 
0.724683 0.999464 0.016934 
0.625029 0.999564 0.018813 
0.076235 1.000555 0.020058 
0.225228 0.999569 0.023069 
0.575037 1.000011 0.020472 
0.175694 0.999668 0.021925 
0.126033 0.999987 0.021001 
0.874152 0.999928 0.016832 
0.824358 0.999830 0.016817 
0.374597 1.000057 0.025526 
0.917297 1.000461 0.016576 
0.274889 0.999616 0.024304 
0.324656 0.999782 0.025318 
0.424623 1.000263 0.025150 
0.500088 0.500667 0.049776 
0.292209 0.294883 0.049840 
0.707957 0.704349 0.050717 
0.708952 0.289818 0.052076 
0.290867 0.708858 0.048776 
0.500961 0.781838 0.051678 
0.783816 0.498813 0.048254 
0.499541 0.222370 0.047848 
0.224682 0.503021 0.051347 
0.168040 0.171125 0.046544 
0.831516 0.170373 0.044317 
0.830725 0.831307 0.056503 
0.168848 0.830063 0.051822 
0.563656 0.640666 0.047291 
0.436368 0.359041 0.052533 
0.641822 0.438273 0.052362 
0.353748 0.567503 0.048965 
0.639669 0.847210 0.053679 
0.360717 0.153946 0.048039 
0.151307 0.360360 0.052080 
0.846622 0.359599 0.057210 
0.846739 0.640384 0.044060 
0.641729 0.153892 0.045639 
0.358233 0.846297 0.051067 
0.153775 0.634575 0.047781 
0.678265 0.580992 0.045394 
0.560384 0.330100 0.052809 
0.439390 0.669774 0.047683 
0.322123 0.420103 0.052533 
0.533621 0.882976 0.051098 
0.465492 0.118257 0.049035 
0.881426 0.467519 0.054213 
0.120179 0.465990 0.051592 
0.744195 0.897601 0.051408 
0.107565 0.258010 0.048823 
0.258417 0.098681 0.048549 
0.897761 0.255076 0.045979 
0.890456 0.735934 0.052454 
0.737392 0.110725 0.047019 
0.262907 0.889174 0.050770 
0.109972 0.737970 0.051059 
0.601021 0.739554 0.052428 
0.398976 0.259343 0.049212 
0.744585 0.404823 0.055741 
0.251871 0.597889 0.048347 
0.598201 0.521506 0.047858 
0.398393 0.475295 0.051381 
0.611625 0.252968 0.049007 
0.387880 0.745755 0.049428 
0.097940 0.095104 0.048779 
0.902837 0.096349 0.048352 
0.905073 0.903887 0.052074 
0.098898 0.906159 0.050541 
0.436624 0.903471 0.050979 
0.902737 0.563824 0.042583 
0.563532 0.097484 0.047550 
0.097053 0.563436 0.047785 
0.258402 0.202649 0.047179 
0.742126 0.796726 0.056082 
0.797721 0.258024 0.049261 
0.208800 0.744925 0.050232 
0.195839 0.278993 0.048949 
0.798860 0.714999 0.050976 
0.714855 0.206224 0.046802 
0.285110 0.793054 0.050501 
0.502031 0.412129 0.052440 
0.497333 0.588957 0.047425 
0.241016 0.365220 0.051781 
0.759337 0.633681 0.045577 
0.689163 0.501273 0.047720 
0.645449 0.344695 0.054276 
0.309256 0.505224 0.051238 
0.354163 0.654751 0.047643 
0.080067 0.183393 0.047785 
0.177247 0.085340 0.048031 
0.817322 0.920331 0.049466 
0.920719 0.182286 0.040615 
0.917683 0.822044 0.057161 
0.821368 0.085083 0.050547 
0.080739 0.817802 0.053527 
0.185478 0.914301 0.049863 
0.651902 0.654764 0.047774 
0.348190 0.344314 0.051772 
0.513931 0.696616 0.048844 
0.485824 0.302974 0.051307 
0.610123 0.917764 0.049348 
0.389507 0.083944 0.051650 
0.078490 0.394676 0.052871 
0.916861 0.389452 0.059202 
0.925547 0.659186 0.043692 
0.660505 0.076154 0.047595 
0.339458 0.924902 0.051033 
0.074300 0.660680 0.047545 
0.431071 0.822162 0.051231 
0.820795 0.566084 0.043351 
0.568683 0.177469 0.046039 
0.179656 0.567195 0.048712 
0.190779 0.431393 0.052677 
0.573446 0.818446 0.053259 
0.426773 0.178907 0.047636 
0.820904 0.428076 0.055984 
0.565170 0.457835 0.051194 
0.435584 0.542656 0.049034 
0.774121 0.330601 0.055160 
0.225428 0.667792 0.048301 
0.667766 0.780488 0.054734 
0.333173 0.218413 0.047871 
0.677306 0.931210 0.048200 
0.068316 0.317594 0.051295 
0.322467 0.070557 0.051317 
0.931040 0.320814 0.053217 
0.745582 0.559064 0.044551 
0.447584 0.736366 0.049529 
0.551865 0.262188 0.049470 
0.614051 0.594764 0.046275 
0.386276 0.406078 0.052586 
0.259049 0.443203 0.052580 
0.585008 0.392694 0.053301 
0.414786 0.607595 0.047804 
0.450821 0.428312 0.052138 
0.548567 0.572718 0.047129 
0.484611 0.935084 0.050004 
0.933938 0.517108 0.048401 
0.515880 0.066209 0.050974 
0.065505 0.515585 0.049098 
0.499998 0.839677 0.052000 
0.837130 0.508856 0.047965 
0.500570 0.152044 0.046955 
0.153867 0.501620 0.050724 
0.696674 0.843353 0.054589 
0.303757 0.157062 0.047567 
0.842829 0.301859 0.052189 
0.149127 0.701576 0.049291 
0.159237 0.231158 0.047429 
0.842648 0.772267 0.055590 
0.773588 0.158383 0.045591 
0.226650 0.841524 0.051112 
0.670025 0.237265 0.048310 
0.329837 0.761613 0.049810 
0.696354 0.355079 0.055189 
0.303209 0.644184 0.047824 
0.939752 0.606908 0.040429 
0.606897 0.061108 0.048548 
0.393551 0.939941 0.050933 
0.060291 0.606819 0.046442 
0.699625 0.433952 0.053113 
0.304302 0.559106 0.049415 
0.055496 0.054670 0.051810 
0.945077 0.057885 0.055224 
0.945269 0.948717 0.047559 
0.055245 0.947979 0.048324 
0.772354 0.947096 0.046588 
0.055181 0.231945 0.048728 
0.226741 0.055439 0.049515 
0.945741 0.770766 0.055696 
0.770964 0.057455 0.052322 
0.228885 0.944770 0.049554 
0.948291 0.226889 0.041014 
0.054813 0.771236 0.053272 
0.219742 0.160635 0.046698 
0.775515 0.848285 0.055337 
0.848214 0.224535 0.045469 
0.155406 0.774498 0.051608 
0.553067 0.948705 0.048350 
[...]
POINT_DATA 1221
SCALARS u float 1
LOOKUP_TABLE default
0.095123
0.248057
0.130530
0.087556
0.094961
0.241189
0.143264
0.097198
0.058391
0.022550
0.007017
0.014267
0.010731
0.020438
0.038392
0.043222
0.026253
0.017475
0.044537
0.060888
0.048522
0.021092
0.042261
0.064605
0.064424
0.041805
0.053050
0.060832
0.031507
0.019121
0.018113
0.012753
0.023446
0.040093
0.042076
0.023576
0.019400
0.045443
0.062032
0.048202
0.015115
0.043826
0.069501
0.062419
0.027210
0.032322
0.091802
0.087917
0.065340
0.037034
0.022261
0.023131
0.035494
0.058015
0.087671
0.105298
0.105719
0.086702
0.058342
0.035745
0.036755
0.063758
0.110245
0.153654
0.190047
0.210766
0.235818
0.063067
0.031703
0.015812
0.016136
0.028545
0.053390
0.085814
0.105566
0.108142
0.090273
0.059875
0.035458
0.032633
0.062250
0.108042
0.148971
0.182607
0.211089
0.235355
0.230916
0.095156
0.089873
0.166277
0.183670
0.132624
0.046428
0.096753
0.149801
0.127887
0.051943
0.093788
0.146653
0.123309
0.049084
0.058085
0.116789
0.115588
0.071440
0.070887
0.107290
0.107695
0.172673
0.177732
0.127653
0.051751
0.101295
0.152314
0.121190
0.048882
0.095939
0.145943
0.121421
0.046627
0.063527
0.112531
0.118268
0.057880
0.044141
0.128781
0.137649
0.126349
0.124486
0.121337
0.120650
0.113718
0.099810
0.082100
0.057670
0.027970
0.007848
0.008574
0.010052
0.007167
0.017539
0.035130
0.053140
0.067940
0.085804
0.125876
0.125556
0.123101
0.124610
0.124353
0.119532
0.104250
0.082702
0.056402
0.027442
0.008754
0.009354
0.009173
0.008042
0.023802
0.042956
0.055340
0.068084
0.079483
0.083954
0.088042
0.127298
0.132495
0.016806
0.118437
0.106843
0.041584
0.117232
0.089881
0.074252
0.028868
0.065613
0.045934
0.059849
0.119000
0.118971
0.009635
0.123181
0.011637
0.007493
0.007009
0.010269
0.002964
0.015375
0.033054
0.018628
0.025753
0.029370
0.033681
0.020844
0.050587
0.083313
0.094531
0.026755
0.039260
0.037038
0.036666
0.017308
0.053697
0.028571
0.030284
0.104838
0.087289
0.063399
0.015915
0.032416
0.067119
0.042248
0.034682
0.037278
0.021320
0.015496
0.067949
0.024028
0.025286
0.018261
0.024755
0.061392
0.040742
0.043818
0.013053
0.017775
0.035850
0.014638
0.083785
0.024153
0.032308
0.021138
0.020401
0.008979
0.018919
0.033447
0.037029
0.014045
0.015591
0.108023
0.036841
0.032405
0.041352
0.088574
0.013214
0.009071
0.016097
0.023405
0.046787
0.009415
0.035481
0.038385
0.026056
0.064991
0.034472
0.063048
0.019807
0.034241
0.032211
0.032481
0.019079
0.137880
0.105121
0.034588
0.051230
0.003312
0.033768
0.025980
0.016854
0.020311
0.012783
0.027241
0.041638
0.133573
0.093742
0.038425
0.015602
0.037316
0.018755
0.096433
0.057769
0.019139
0.039184
0.047413
0.034306
0.088968
0.018292
0.016557
0.075358
0.025502
0.069392
0.030912
0.028985
0.019552
0.023332
0.054704
0.079350
0.007764
0.018276
0.054007
0.037772
0.037968
0.048330
0.032779
0.031334
0.042292
0.006220
0.037478
0.021459
0.014378
0.033664
0.039065
0.044340
0.012875
0.066867
0.035511
0.035361
0.013585
0.037626
0.082714
0.064334
0.017448
0.027853
0.004603
0.076183
0.031597
0.138817
0.024159
0.014466
0.051645
0.046977
0.012549
0.031577
0.093696
0.058304
0.039901
0.052296
0.020319
0.018644
0.083904
0.051686
0.006773
0.132737
0.047811
0.048461
0.078263
0.066550
0.023759
0.027316
0.116324
0.054540
0.029852
0.006917
0.030240
0.062683
0.015179
0.022382
0.018266
0.038882
0.038978
0.040507
0.014945
0.021057
0.021229
0.040047
0.019530
0.006372
0.018478
0.015344
0.121626
0.048569
0.093532
0.092493
0.046755
0.029495
0.019560
0.029866
0.011018
0.030541
0.037260
0.029635
0.032350
0.032293
0.017652
0.125121
0.022239
0.046598
0.012477
0.007757
0.004009
0.021848
0.065342
0.033316
0.104404
0.024346
0.023670
0.013749
0.008160
0.040240
0.054649
0.083557
0.016493
0.011236
0.058050
0.051156
0.010432
0.045830
0.092298
0.058434
0.018399
0.027828
0.021308
0.017889
0.118213
0.054470
0.041997
0.092339
0.013560
0.008506
0.070390
0.028236
0.013708
0.049333
0.056759
0.009577
0.041324
0.026862
0.021387
0.074244
0.008195
0.102378
0.021509
0.041402
0.099258
0.062399
0.014170
0.013211
0.040151
0.024531
0.006607
0.029082
0.009658
0.042782
0.018380
0.021996
0.033872
0.058189
0.009414
0.021857
0.056624
0.052449
0.103116
0.037471
0.037823
0.044615
0.012072
0.031572
0.055310
0.038290
0.058627
0.117093
0.036425
0.067715
0.073598
0.037003
0.042254
0.096432
0.035194
0.038837
0.057668
0.024613
0.036485
0.016114
0.022637
0.016631
0.171690
0.072839
0.117916
0.102955
0.062870
0.026029
0.004093
0.013922
0.026934
0.046982
0.036834
0.027721
0.019441
0.052102
0.035780
0.074708
0.038040
0.037847
0.044225
0.004186
0.022188
0.022005
0.014853
0.043621
0.036329
0.055615
0.036640
0.010464
0.083904
0.026243
0.031447
0.047234
0.029461
0.073914
0.016756
0.057138
0.026023
0.100665
0.038267
0.039821
0.040538
0.040194
0.042190
0.040661
0.066337
0.140937
0.020516
0.087375
0.054072
0.016037
0.018364
0.110037
0.062895
0.032584
0.007119
0.031427
0.086962
0.028922
0.009245
0.009090
0.035904
0.030048
0.089353
0.039657
0.007864
0.035823
0.023807
0.015439
0.116776
0.060001
0.031627
0.080778
0.063493
0.059893
0.021371
0.008681
0.076966
0.025476
0.036800
0.047904
0.014448
0.039280
0.015815
0.020863
0.046731
0.067420
0.119798
0.050005
0.030630
0.042301
0.035712
0.071581
0.035890
0.021099
0.055537
0.027992
0.036337
0.020562
0.013948
0.012243
0.015676
0.023097
0.049785
0.008016
0.033434
0.068371
0.012791
0.122726
0.024471
0.027780
0.038022
0.049020
0.008030
0.015905
0.052065
0.021086
0.029948
0.074640
0.026131
0.051845
0.050899
0.050694
0.113317
0.030640
0.045303
0.048616
0.023964
0.009494
0.041195
0.003641
0.089021
0.042885
0.013811
0.046775
0.033888
0.077878
0.031648
0.049714
0.065819
0.046693
0.034174
0.012359
0.081422
0.025039
0.015884
0.039577
0.059358
0.014850
0.024204
0.022983
0.035542
0.013613
0.039557
0.064551
0.029937
0.008927
0.024503
0.020126
0.017574
0.027232
0.128117
0.019174
0.050649
0.012491
0.060536
0.161024
0.098455
0.067100
0.032078
0.011777
0.013641
0.056971
0.032510
0.064603
0.026057
0.033450
0.036349
0.039443
0.019114
0.106301
0.026301
0.027282
0.032957
0.079869
0.009562
0.013616
0.008709
0.034448
0.022035
0.007163
0.057952
0.013184
0.064835
0.020272
0.014929
0.084726
0.099867
0.158847
0.172010
0.022747
0.083449
0.093518
0.127792
0.090429
0.017934
0.163085
0.185953
0.138874
0.029837
0.040288
0.079372
0.149299
0.136992
0.126798
0.142782
0.013548
0.082658
0.231559
0.231728
0.078005
0.081071
0.074506
0.038635
0.194371
0.167659
0.218299
0.127002
0.013643
0.019985
0.020586
0.041575
0.096700
0.097324
0.070633
0.106124
0.026754
0.039891
0.080007
0.040783
0.005194
0.004093
0.015894
0.032214
0.017797
0.029379
0.033927
0.033221
0.020747
0.049751
0.081938
0.095044
0.028832
0.040071
0.034839
0.041742
0.015837
0.052395
0.028624
0.029137
0.107816
0.085354
0.061749
0.015640
0.032217
0.066542
0.037821
0.037580
0.034236
0.016952
0.025770
0.063380
0.026219
0.032657
0.020152
0.021639
0.056432
0.041422
0.046274
0.013706
0.020495
0.040339
0.013829
0.083752
0.025475
0.035406
0.020035
0.018767
0.010939
0.017944
0.038698
0.033992
0.012653
0.015658
0.104576
0.041072
0.034457
0.040849
0.088955
0.016169
0.006941
0.016440
0.018238
0.050193
0.008272
0.036691
0.037968
0.026820
0.063553
0.030919
0.020082
0.060294
0.035188
0.034185
0.028662
0.027561
0.129269
0.104727
0.018494
0.051436
0.014463
0.033834
0.019018
0.025075
0.018842
0.017946
0.027287
0.040865
0.137048
0.092786
0.035169
0.014819
0.036962
0.018848
0.096930
0.056962
0.023997
0.038744
0.050146
0.035275
0.088592
0.017491
0.013865
0.069706
0.071307
0.024097
0.029215
0.039893
0.021295
0.019621
0.057949
0.077960
0.012090
0.010595
0.054448
0.037459
0.037235
0.048477
0.032351
0.031387
0.042254
0.005737
0.044886
0.028955
0.018529
0.027133
0.046061
0.045703
0.016248
0.070702
0.033459
0.042741
0.009976
0.038688
0.083134
0.066471
0.017592
0.028900
0.004292
0.080080
0.031064
0.134424
0.027053
0.014663
0.052078
0.025714
0.010835
0.030251
0.087915
0.037401
0.028854
0.057190
0.021001
0.009702
0.085580
0.044568
0.018961
0.124748
0.047750
0.047835
0.081557
0.067962
0.025368
0.026722
0.109815
0.055649
0.030377
0.009204
0.025043
0.060765
0.014304
0.023975
0.011818
0.037981
0.039736
0.039506
0.027856
0.005586
0.021043
0.039191
0.019681
0.014293
0.021636
0.009386
0.124391
0.047182
0.082499
0.091219
0.044947
0.028673
0.053142
0.028995
0.030099
0.034559
0.029918
0.067486
0.024133
0.030800
0.022893
0.119754
0.022017
0.046622
0.018778
0.005112
0.005732
0.017325
0.030981
0.063226
0.103692
0.018749
0.018114
0.014732
0.010338
0.038088
0.051869
0.083432
0.021200
0.011642
0.053666
0.014273
0.007316
0.045181
0.091976
0.060557
0.018294
0.024310
0.021159
0.018155
0.116741
0.052739
0.040718
0.090357
0.012810
0.004117
0.014722
0.046993
0.055050
0.008967
0.041981
0.027325
0.016505
0.075089
0.008372
0.108174
0.025664
0.042408
0.098118
0.052041
0.017897
0.013359
0.049285
0.032925
0.013659
0.030110
0.013487
0.039802
0.019224
0.020538
0.033795
0.065654
0.012418
0.015944
0.048352
0.017215
0.056723
0.098973
0.037519
0.037272
0.044219
0.033065
0.029501
0.008251
0.060906
0.039466
0.055170
0.117925
0.036811
0.067883
0.072743
0.037351
0.043736
0.098542
0.037350
0.038443
0.023691
0.057660
0.037169
0.014470
0.025064
0.010256
0.163165
0.076275
0.114819
0.098343
0.062524
0.029337
0.026667
0.024357
0.025016
0.071159
0.051263
0.034484
0.028603
0.027326
0.018821
0.052735
0.059616
0.036068
0.030598
0.076336
0.037326
0.039267
0.044506
0.013908
0.023974
0.006756
0.020257
0.044990
0.055806
0.036409
0.009940
0.084831
0.017930
0.032489
0.026152
0.046359
0.071576
0.015930
0.055288
0.031871
0.097451
0.038255
0.035522
0.034404
0.059759
0.043133
0.039745
0.065261
0.149654
0.020609
0.084588
0.052914
0.020660
0.018634
0.109410
0.061683
0.032016
0.009900
0.032933
0.085109
0.029051
0.035619
0.029337
0.088962
0.032296
0.015405
0.035829
0.025087
0.015970
0.120412
0.056514
0.063531
0.021800
0.011380
0.072156
0.076293
0.023961
0.033635
0.044768
0.013953
0.034810
0.020387
0.019576
0.063760
0.063792
0.122088
0.038741
0.014917
0.039603
0.036263
0.027837
0.034151
0.025034
0.017334
0.058174
0.029410
0.042148
0.034322
0.018850
0.012993
0.023093
0.049098
0.013006
0.011634
0.037157
0.010952
0.117214
0.016911
0.008236
0.038638
0.049421
0.007440
0.002253
0.018314
0.054478
0.080296
0.027942
0.045900
0.054007
0.051634
0.108984
0.035974
0.030971
0.049011
0.050776
0.026625
0.008870
0.043144
0.004757
0.087294
0.078514
0.041643
0.011904
0.045203
0.033049
0.031408
0.048747
0.064525
0.048962
0.033831
0.012560
0.072322
0.031793
0.017208
0.036316
0.061624
0.014008
0.018917
0.023699
0.057671
0.035058
0.038957
0.067570
0.025502
0.008016
0.030660
0.015399
0.012020
0.028860
0.128319
0.015234
0.050971
0.012686
0.061140
0.164287
0.080996
0.055143
0.029682
0.016575
0.057118
0.032400
0.064327
0.025620
0.061498
0.014792
0.034854
0.035649
0.038449
0.025183
0.105276
0.020361
0.024563
0.020021
0.079287
0.013744
0.014927
0.007495
0.034593
0.021400
0.010261
0.007962
0.061319
0.026413
0.017324
0.061272
0.071597
0.075562
0.078958
0.025138
0.011177
0.058141
0.070378
0.047962
0.018324
0.014461
0.015463
0.010756
0.034611
0.030663
0.008250
0.043939
0.035078
0.058932
0.054577
0.020293
0.028658
