# vtk DataFile Version 2.0
Unstructured Grid Example
ASCII
DATASET UNSTRUCTURED_GRID
POINTS 1221 float
0.000024 -0.000189 0.000980 
1.000043 0.000164 -0.000719 
0.999976 1.000215 0.001107 
-0.000093 0.999770 -0.000635 
-0.000048 0.000217 0.050981 
0.999933 -0.000208 0.049282 
1.000018 0.999782 0.051106 
0.000104 1.000232 0.049364 
-0.000046 0.050218 0.050560 
-0.000055 0.100223 0.050122 
-0.000056 0.150204 0.049688 
-0.000058 0.200146 0.049337 
-0.000056 0.250069 0.049105 
-0.000052 0.300027 0.049004 
-0.000055 0.349979 0.048980 
-0.000045 0.399897 0.049097 
-0.000014 0.449829 0.049419 
-0.000005 0.499813 0.049845 
0.000027 0.549805 0.050320 
0.000042 0.599813 0.050784 
0.000089 0.649876 0.051196 
0.000101 0.699986 0.051401 
0.000106 0.750092 0.051373 
0.000101 0.800151 0.051118 
0.000104 0.850190 0.050756 
0.000103 0.900218 0.050306 
0.000102 0.950232 0.049836 
0.000034 0.049812 0.000561 
0.000044 0.099800 0.000117 
0.000058 0.149815 -0.000309 
0.000062 0.199858 -0.000670 
0.000053 0.249947 -0.000893 
0.000050 0.299964 -0.000997 
0.000040 0.349999 -0.001024 
0.000026 0.400079 -0.000895 
-0.000003 0.450131 -0.000578 
-0.000013 0.500176 -0.000155 
-0.000045 0.550171 0.000318 
-0.000066 0.600163 0.000778 
-0.000107 0.650117 0.001188 
-0.000120 0.700031 0.001398 
-0.000137 0.749927 0.001357 
-0.000118 0.799865 0.001133 
-0.000107 0.849808 0.000755 
-0.000104 0.899775 0.000310 
-0.000098 0.949770 -0.000164 
-0.000012 0.000014 0.025978 
0.000005 1.000001 0.024366 
0.049952 0.000206 0.051037 
0.099964 0.000179 0.051070 
0.149979 0.000160 0.051080 
0.199998 0.000128 0.051066 
0.250010 0.000131 0.051047 
0.300045 0.000130 0.050985 
0.350066 0.000097 0.050846 
0.400112 0.000087 0.050620 
0.450126 0.000070 0.050349 
0.500123 0.000047 0.050040 
0.550106 0.000003 0.049745 
0.600081 -0.000023 0.049500 
0.650065 -0.000069 0.049265 
0.700031 -0.000098 0.049085 
0.750000 -0.000138 0.048994 
0.799964 -0.000154 0.048970 
0.849947 -0.000168 0.049009 
0.899940 -0.000176 0.049090 
0.949933 -0.000197 0.049178 
0.050022 -0.000191 0.001037 
0.100013 -0.000178 0.001070 
0.150003 -0.000143 0.001094 
0.200002 -0.000128 0.001065 
0.250001 -0.000123 0.001046 
0.299966 -0.000113 0.000991 
0.349929 -0.000095 0.000839 
0.399893 -0.000068 0.000626 
0.449880 -0.000043 0.000345 
0.499879 -0.000013 0.000045 
0.549900 0.000013 -0.000256 
0.599921 0.000036 -0.000498 
0.649928 0.000090 -0.000725 
0.699943 0.000117 -0.000916 
0.749978 0.000151 -0.001019 
0.800006 0.000159 -0.001028 
0.850029 0.000160 -0.000989 
0.900036 0.000162 -0.000911 
0.950041 0.000168 -0.000820 
0.999988 -0.000022 0.024283 
0.999935 0.049796 0.049660 
0.999937 0.099804 0.050051 
0.999932 0.149831 0.050409 
0.999932 0.199853 0.050739 
0.999920 0.249888 0.051003 
0.999936 0.299977 0.051118 
0.999943 0.350064 0.051052 
0.999958 0.400166 0.050773 
0.999995 0.450221 0.050323 
1.000029 0.500230 0.049786 
1.000046 0.550194 0.049282 
1.000081 0.600129 0.048888 
1.000100 0.650035 0.048678 
1.000078 0.699917 0.048713 
1.000068 0.749846 0.048934 
1.000065 0.799830 0.049288 
1.000054 0.849805 0.049735 
1.000032 0.899790 0.050197 
1.000026 0.949785 0.050661 
1.000051 0.050163 -0.000336 
1.000059 0.100167 0.000052 
1.000073 0.150137 0.000419 
1.000077 0.200131 0.000738 
1.000084 0.250102 0.001005 
1.000078 0.300009 0.001121 
1.000072 0.349950 0.001045 
1.000052 0.399840 0.000782 
1.000025 0.449787 0.000314 
0.999993 0.499783 -0.000211 
0.999977 0.549827 -0.000718 
0.999932 0.599882 -0.001112 
0.999923 0.649969 -0.001317 
0.999932 0.700061 -0.001302 
0.999942 0.750136 -0.001065 
0.999956 0.800187 -0.000700 
0.999969 0.850218 -0.000273 
0.999974 0.900217 0.000199 
0.999977 0.950221 0.000658 
0.999997 0.999999 0.026103 
0.950021 0.999785 0.051133 
0.900014 0.999810 0.051138 
0.850003 0.999823 0.051143 
0.799998 0.999837 0.051119 
0.749983 0.999847 0.051070 
0.699960 0.999876 0.050975 
0.649943 0.999891 0.050794 
0.599883 0.999956 0.050545 
0.549869 0.999964 0.050210 
0.499876 1.000015 0.049855 
0.449892 1.000042 0.049546 
0.399887 1.000083 0.049258 
0.349916 1.000109 0.048984 
0.299983 1.000122 0.048812 
0.250026 1.000156 0.048735 
0.200059 1.000174 0.048764 
0.150083 1.000182 0.048855 
0.100098 1.000203 0.049012 
0.050103 1.000226 0.049179 
0.949977 1.000204 0.001128 
0.899988 1.000196 0.001138 
0.849988 1.000171 0.001144 
0.800004 1.000161 0.001112 
0.750020 1.000151 0.001071 
0.700046 1.000133 0.000985 
0.650073 1.000123 0.000799 
0.600096 1.000048 0.000539 
0.550125 1.000012 0.000206 
0.500116 0.999959 -0.000138 
0.450071 0.999934 -0.000449 
0.400081 0.999887 -0.000747 
0.350072 0.999867 -0.001020 
0.300039 0.999840 -0.001192 
0.249992 0.999810 -0.001264 
0.199956 0.999798 -0.001248 
0.149935 0.999805 -0.001141 
0.099918 0.999784 -0.000991 
0.049909 0.999774 -0.000820 
0.024287 0.999945 0.018162 
0.019838 1.000096 0.034707 
0.975686 1.000048 0.020008 
0.980215 0.999907 0.036534 
0.481661 0.999983 0.024739 
0.775000 1.000000 0.026097 
0.674990 1.000003 0.025897 
0.525740 0.999986 0.025047 
0.725000 1.000004 0.026042 
0.624984 1.000025 0.025679 
0.075006 0.999998 0.024088 
0.225003 0.999989 0.023729 
0.575077 0.999988 0.025365 
0.175012 0.999985 0.023801 
0.125008 0.999990 0.023929 
0.875003 1.000005 0.026140 
0.824995 1.000000 0.026133 
0.374999 0.999981 0.024118 
0.918336 1.000002 0.026140 
0.275005 0.999986 0.023749 
0.325004 0.999983 0.023880 
0.424989 0.999990 0.024395 
0.499980 0.499996 0.050065 
0.292291 0.295018 0.049651 
0.707727 0.705074 0.049807 
0.709048 0.290725 0.050304 
0.290961 0.709250 0.050273 
0.501354 0.781408 0.050092 
0.784504 0.498091 0.049982 
0.499496 0.223251 0.049990 
0.224237 0.502671 0.049733 
0.168177 0.170788 0.049938 
0.830949 0.169568 0.050097 
0.830358 0.830846 0.049857 
0.169082 0.830456 0.050138 
0.563663 0.640628 0.050129 
0.436316 0.359385 0.049879 
0.642430 0.437634 0.050231 
0.353360 0.567003 0.049989 
0.639825 0.846730 0.050235 
0.360774 0.153817 0.050205 
0.151265 0.360527 0.049255 
0.846730 0.360240 0.050686 
0.846402 0.641327 0.049280 
0.641536 0.153568 0.049791 
0.358459 0.846478 0.049752 
0.153841 0.634783 0.050579 
0.678342 0.581490 0.049980 
0.560651 0.330815 0.050103 
0.439302 0.669173 0.050124 
0.321703 0.420361 0.049694 
0.533707 0.881987 0.050103 
0.465288 0.117871 0.050044 
0.882312 0.465815 0.050138 
0.119896 0.465486 0.049543 
0.744318 0.896436 0.050416 
0.107896 0.258285 0.049339 
0.258619 0.097918 0.050501 
0.896521 0.255596 0.050693 
0.889714 0.736962 0.049174 
0.736990 0.110280 0.049592 
0.263008 0.889754 0.049475 
0.110345 0.738565 0.050895 
0.601039 0.740013 0.050076 
0.398984 0.260020 0.049897 
0.745234 0.404675 0.050399 
0.251714 0.597735 0.050168 
0.598384 0.520922 0.050147 
0.397999 0.474976 0.049897 
0.611745 0.253932 0.050063 
0.388089 0.745863 0.050088 
0.097547 0.094948 0.050355 
0.902343 0.094645 0.049772 
0.905240 0.902241 0.050339 
0.098651 0.905605 0.049835 
0.436801 0.903121 0.049756 
0.903144 0.563271 0.049350 
0.563218 0.096916 0.049748 
0.096944 0.562999 0.050276 
0.258648 0.202407 0.049942 
0.741899 0.797209 0.049863 
0.797171 0.258082 0.050406 
0.209065 0.745506 0.050470 
0.196168 0.279045 0.049497 
0.798266 0.716095 0.049496 
0.714619 0.206553 0.050019 
0.285363 0.793487 0.050038 
0.502046 0.411924 0.050018 
0.497233 0.588336 0.050112 
0.240797 0.365407 0.049467 
0.759225 0.634414 0.049646 
0.689591 0.500760 0.050103 
0.645931 0.345302 0.050264 
0.308750 0.504868 0.049808 
0.354040 0.654629 0.050137 
0.080195 0.183482 0.049631 
0.177021 0.084440 0.050556 
0.817608 0.919004 0.050555 
0.919089 0.182272 0.050397 
0.917249 0.820831 0.049641 
0.820931 0.082647 0.049525 
0.080938 0.817743 0.050643 
0.185389 0.914380 0.049437 
0.651939 0.655453 0.049975 
0.348054 0.344577 0.049703 
0.514031 0.696549 0.050134 
0.485937 0.303469 0.049976 
0.610143 0.917160 0.050372 
0.389563 0.083110 0.050383 
0.078353 0.394561 0.049164 
0.917081 0.389992 0.050694 
0.925039 0.660472 0.048929 
0.660505 0.074962 0.049502 
0.339733 0.925117 0.049336 
0.074529 0.661410 0.050951 
0.431156 0.821834 0.049953 
0.821057 0.565954 0.049569 
0.568597 0.177875 0.049905 
0.179597 0.566770 0.050142 
0.190377 0.431486 0.049439 
0.573690 0.818314 0.050156 
0.426696 0.179041 0.050073 
0.821643 0.427039 0.050369 
0.565443 0.457566 0.050132 
0.435304 0.542092 0.050032 
0.774248 0.331229 0.050534 
0.225524 0.668205 0.050446 
0.667615 0.781170 0.050002 
0.333284 0.218470 0.049968 
0.677298 0.930249 0.050569 
0.068498 0.317923 0.049136 
0.322712 0.069789 0.050607 
0.930275 0.322661 0.050930 
0.745780 0.559613 0.049822 
0.447833 0.736413 0.050103 
0.551956 0.263310 0.050028 
0.614155 0.594860 0.050090 
0.385958 0.405918 0.049804 
0.258546 0.443245 0.049593 
0.585410 0.392902 0.050165 
0.414548 0.607096 0.050081 
0.450605 0.428047 0.049938 
0.548611 0.572196 0.050133 
0.484733 0.934732 0.049870 
0.934724 0.515384 0.049689 
0.515314 0.065321 0.049919 
0.065337 0.515063 0.049927 
0.500130 0.838474 0.050040 
0.837983 0.507427 0.049846 
0.500363 0.152226 0.049959 
0.153541 0.501083 0.049743 
0.696706 0.842760 0.050164 
0.303888 0.156887 0.050215 
0.842309 0.302774 0.050680 
0.149405 0.702142 0.050749 
0.159541 0.231270 0.049580 
0.842031 0.773099 0.049473 
0.773153 0.157954 0.049900 
0.226853 0.842083 0.049861 
0.669950 0.238132 0.050097 
0.330003 0.761854 0.050109 
0.696867 0.355718 0.050360 
0.303134 0.644250 0.050189 
0.939688 0.606615 0.049003 
0.606574 0.060368 0.049567 
0.393716 0.939751 0.049465 
0.060349 0.606473 0.050696 
0.700255 0.433338 0.050286 
0.303892 0.558552 0.049960 
0.054375 0.054312 0.050619 
0.945520 0.053920 0.049567 
0.945916 0.945369 0.050675 
0.054625 0.946133 0.049652 
0.772748 0.945840 0.050752 
0.055599 0.232344 0.049297 
0.226862 0.054375 0.050756 
0.945235 0.771492 0.049199 
0.771616 0.054696 0.049293 
0.229001 0.945036 0.049116 
0.946462 0.226946 0.050727 
0.055065 0.771737 0.051062 
0.219961 0.160262 0.050105 
0.775327 0.847328 0.050066 
0.847448 0.224609 0.050409 
0.155718 0.774851 0.050544 
0.553136 0.947769 0.050186 
[...]
POINT_DATA 1221
SCALARS u float 1
LOOKUP_TABLE default
0.105048
0.077723
0.118617
0.071741
0.105778
0.078965
0.118597
0.072033
0.063433
0.027372
0.039666
0.071689
0.094612
0.104955
0.107534
0.095708
0.063708
0.025538
0.039469
0.084938
0.126846
0.147816
0.145224
0.119193
0.082766
0.040984
0.031798
0.062293
0.024851
0.038383
0.072374
0.094223
0.105083
0.107790
0.094575
0.062359
0.024718
0.038250
0.083941
0.126077
0.147686
0.143657
0.120657
0.082744
0.041731
0.031455
0.102885
0.066700
0.111360
0.114160
0.114864
0.112897
0.110981
0.104606
0.089882
0.066922
0.039679
0.014445
0.029053
0.053341
0.077916
0.096893
0.106875
0.109660
0.105917
0.097703
0.089168
0.110923
0.114141
0.116077
0.112827
0.110783
0.105028
0.089161
0.067178
0.038748
0.013671
0.029009
0.053156
0.077217
0.097366
0.108402
0.109459
0.105478
0.097441
0.088115
0.075468
0.042243
0.022359
0.047043
0.079641
0.106475
0.117837
0.111011
0.083323
0.041137
0.033119
0.078437
0.118088
0.139550
0.135904
0.113573
0.077295
0.035038
0.030499
0.073139
0.039681
0.019398
0.046975
0.079256
0.106680
0.118260
0.110339
0.084142
0.040002
0.031845
0.077729
0.117861
0.138798
0.137342
0.113105
0.076311
0.036890
0.031102
0.073028
0.116079
0.121381
0.121342
0.121681
0.118966
0.113760
0.103444
0.084486
0.058821
0.026345
0.020148
0.049325
0.079468
0.107865
0.125689
0.134111
0.131414
0.122298
0.106625
0.090269
0.120600
0.121429
0.121733
0.118199
0.113746
0.104697
0.085419
0.057828
0.025418
0.019416
0.048334
0.079902
0.108458
0.126588
0.134467
0.133096
0.121965
0.107020
0.089969
0.076683
0.075542
0.117896
0.117953
0.027495
0.115418
0.094401
0.005173
0.109582
0.071477
0.095927
0.133751
0.038393
0.126190
0.112712
0.119944
0.119200
0.092794
0.119954
0.131618
0.117816
0.063697
0.007157
0.037519
0.021254
0.032266
0.029017
0.009691
0.010730
0.001206
0.029239
0.014824
0.016366
0.021919
0.021953
0.013686
0.013342
0.024521
0.004052
0.025491
0.022625
0.078492
0.072497
0.076310
0.022361
0.027595
0.061731
0.007334
0.011373
0.013204
0.032511
0.012520
0.007483
0.022822
0.049956
0.046252
0.069756
0.054016
0.073804
0.087646
0.043995
0.056757
0.094691
0.009524
0.012074
0.042227
0.019891
0.015494
0.011475
0.007535
0.009356
0.041129
0.029265
0.039622
0.027104
0.026316
0.069684
0.027273
0.033596
0.012123
0.016853
0.043841
0.049801
0.053605
0.053586
0.007269
0.011539
0.003590
0.011932
0.056301
0.038020
0.012088
0.028037
0.020644
0.014623
0.041769
0.060680
0.060655
0.044709
0.041412
0.052584
0.070195
0.062188
0.005318
0.031489
0.014090
0.004315
0.039649
0.041303
0.088297
0.073511
0.112951
0.053015
0.070778
0.100448
0.008533
0.046498
0.010821
0.021605
0.059223
0.016442
0.009818
0.040859
0.014259
0.004247
0.056238
0.047500
0.006018
0.009271
0.060773
0.091132
0.065191
0.098031
0.020617
0.010931
0.003705
0.010080
0.020844
0.043161
0.017626
0.008610
0.006989
0.013989
0.015215
0.037168
0.013126
0.018406
0.007981
0.022107
0.005192
0.030371
0.020993
0.024207
0.071854
0.079043
0.044982
0.056797
0.014580
0.020137
0.011677
0.012779
0.038003
0.020397
0.105655
0.046005
0.057369
0.075010
0.030314
0.008380
0.068648
0.050125
0.074432
0.044323
0.080605
0.074250
0.080536
0.085851
0.075762
0.094393
0.078194
0.112697
0.015551
0.018554
0.044260
0.059425
0.020696
0.037334
0.027951
0.066673
0.072911
0.079711
0.026042
0.032946
0.012612
0.004764
0.004172
0.014452
0.072498
0.008281
0.018812
0.043606
0.020191
0.006500
0.026017
0.020637
0.080389
0.024658
0.079609
0.067627
0.021341
0.046240
0.076290
0.018417
0.022252
0.011444
0.039587
0.016733
0.013016
0.024386
0.025339
0.020779
0.056231
0.034955
0.032240
0.028460
0.032330
0.052290
0.039060
0.013427
0.007406
0.058095
0.115209
0.072239
0.123187
0.093762
0.030459
0.024265
0.018272
0.027098
0.007309
0.008109
0.012383
0.010527
0.020008
0.030064
0.022891
0.029985
0.022254
0.017461
0.040553
0.090667
0.035518
0.069006
0.054910
0.012797
0.002311
0.032636
0.009387
0.065903
0.058576
0.008811
0.012311
0.035052
0.038991
0.042839
0.084921
0.041077
0.077475
0.030290
0.039262
0.044180
0.027734
0.034192
0.008018
0.031816
0.011282
0.022728
0.087380
0.006472
0.003515
0.008182
0.007812
0.066734
0.078848
0.091921
0.081262
0.100036
0.029903
0.035861
0.052695
0.011763
0.009718
0.017073
0.053291
0.061038
0.097869
0.067771
0.095435
0.044331
0.009053
0.019888
0.015806
0.035219
0.019286
0.031589
0.044494
0.014688
0.019899
0.043974
0.043178
0.050128
0.090447
0.054408
0.092619
0.050361
0.083673
0.088061
0.094400
0.012484
0.010508
0.083281
0.007083
0.033466
0.011291
0.002184
0.018862
0.011360
0.025758
0.054753
0.007593
0.014208
0.011563
0.013476
0.003972
0.000845
0.008080
0.022108
0.004629
0.028666
0.096947
0.128317
0.073009
0.120373
0.012474
0.005978
0.094583
0.047630
0.036373
0.046906
0.056513
0.081536
0.014311
0.002627
0.020166
0.040156
0.087250
0.046971
0.066107
0.010299
0.049899
0.014934
0.017408
0.020549
0.067454
0.021499
0.043079
0.079490
0.057677
0.048199
0.031307
0.017826
0.010668
0.011905
0.008419
0.067394
0.044380
0.056481
0.045106
0.036868
0.036639
0.076836
0.025261
0.008101
0.040149
0.019019
0.014938
0.008695
0.036289
0.065815
0.063010
0.101058
0.046284
0.061895
0.012107
0.038209
0.083199
0.024423
0.087342
0.066770
0.042373
0.024840
0.068567
0.070836
0.013049
0.008230
0.024777
0.032342
0.021416
0.019436
0.004656
0.099489
0.035429
0.012041
0.008421
0.004465
0.018978
0.005334
0.027810
0.024562
0.046714
0.014332
0.009775
0.014272
0.013730
0.005098
0.022357
0.006066
0.013979
0.032011
0.079125
0.100058
0.083268
0.108512
0.020711
0.058155
0.015186
0.047198
0.014700
0.016598
0.025118
0.005920
0.008068
0.036288
0.056164
0.059419
0.028833
0.012169
0.008977
0.013482
0.013643
0.043181
0.015799
0.033187
0.021158
0.039947
0.014385
0.063600
0.065882
0.016840
0.020519
0.009054
0.012449
0.022620
0.020195
0.028947
0.021457
0.064850
0.069898
0.046169
0.050142
0.086559
0.041142
0.124900
0.062157
0.104626
0.083816
0.085838
0.063777
0.095609
0.057416
0.000889
0.008706
0.009540
0.010649
0.036643
0.042787
0.033150
0.013859
0.005493
0.083777
0.048741
0.087337
0.052025
0.052695
0.041728
0.017822
0.054099
0.022245
0.023734
0.014076
0.006497
0.082286
0.008703
0.008786
0.019155
0.011977
0.043297
0.093824
0.098356
0.056273
0.060811
0.042350
0.115960
0.094260
0.052038
0.003671
0.045581
0.092707
0.061322
0.025159
0.010023
0.117594
0.007019
0.059136
0.099831
0.098659
0.130741
0.126517
0.141428
0.080915
0.080597
0.106278
0.106126
0.007454
0.108275
0.100389
0.107703
0.091439
0.109209
0.113410
0.114093
0.111303
0.112304
0.077893
0.021944
0.097546
0.050821
0.063802
0.087142
0.102885
0.041270
0.007291
0.037462
0.020672
0.033442
0.030864
0.009067
0.009874
0.002165
0.027684
0.017298
0.017674
0.020823
0.024775
0.012866
0.013588
0.026098
0.003553
0.026079
0.022543
0.077450
0.073419
0.074727
0.022714
0.027577
0.061561
0.005514
0.033130
0.011504
0.013454
0.012121
0.008461
0.021683
0.050045
0.047899
0.070790
0.054447
0.073050
0.088292
0.043566
0.058677
0.095086
0.009839
0.010880
0.042987
0.019812
0.015820
0.011441
0.009464
0.010228
0.040268
0.029042
0.040614
0.028900
0.027868
0.068263
0.027638
0.034020
0.011901
0.016418
0.044816
0.049330
0.052900
0.053402
0.009939
0.013625
0.004399
0.012262
0.056881
0.037492
0.013177
0.021208
0.027306
0.014028
0.041513
0.059562
0.061401
0.044435
0.041028
0.052715
0.070851
0.062642
0.005200
0.014091
0.030791
0.004618
0.038808
0.039796
0.086797
0.074131
0.113599
0.054083
0.070569
0.102844
0.009125
0.046276
0.011981
0.023885
0.058858
0.015746
0.008957
0.041738
0.014329
0.004239
0.006626
0.053992
0.048086
0.008553
0.060767
0.092059
0.065334
0.098233
0.019014
0.011172
0.004777
0.009359
0.020825
0.042400
0.018097
0.009018
0.007127
0.014435
0.016470
0.038871
0.013303
0.017488
0.006944
0.022187
0.005009
0.029831
0.019426
0.024167
0.070830
0.079862
0.044690
0.057118
0.014688
0.022790
0.012697
0.012661
0.041002
0.023224
0.103877
0.046199
0.059584
0.075330
0.020591
0.015078
0.067523
0.047927
0.073382
0.044003
0.080913
0.074951
0.080539
0.084691
0.075376
0.096278
0.077950
0.109007
0.015244
0.015576
0.045017
0.060355
0.019820
0.035434
0.027439
0.066287
0.073400
0.080332
0.026593
0.035459
0.006580
0.005289
0.004199
0.015107
0.070977
0.012488
0.027847
0.043786
0.019567
0.007975
0.012889
0.019102
0.079377
0.023185
0.079595
0.066854
0.020672
0.047212
0.075676
0.010924
0.022166
0.039124
0.017814
0.013004
0.033618
0.007651
0.024698
0.020013
0.054353
0.034400
0.032802
0.028295
0.031957
0.051939
0.038440
0.005359
0.014320
0.057016
0.116338
0.072990
0.125398
0.094936
0.030843
0.023633
0.016408
0.028150
0.008631
0.010109
0.019059
0.010435
0.019481
0.030696
0.023674
0.029156
0.023113
0.019378
0.041788
0.088951
0.035688
0.068831
0.054159
0.013194
0.002731
0.066312
0.058349
0.010232
0.012913
0.035181
0.039223
0.041369
0.085888
0.040894
0.078752
0.030827
0.039585
0.042139
0.026790
0.033478
0.009140
0.033284
0.011680
0.021303
0.088536
0.006932
0.005425
0.008374
0.007986
0.066520
0.080411
0.092839
0.081491
0.100078
0.012473
0.029082
0.035167
0.052361
0.012065
0.010080
0.053316
0.025613
0.009503
0.062900
0.098878
0.065389
0.096474
0.044828
0.005939
0.018939
0.016424
0.035380
0.018839
0.033640
0.043925
0.020304
0.013859
0.044430
0.044841
0.049393
0.090873
0.053817
0.093656
0.049725
0.083187
0.088286
0.094347
0.083055
0.012886
0.020308
0.036349
0.006369
0.032845
0.031341
0.011722
0.002972
0.019337
0.026589
0.011835
0.008247
0.025837
0.053894
0.007790
0.014746
0.011876
0.013604
0.002409
0.005295
0.007873
0.003340
0.028863
0.097193
0.127938
0.073783
0.124199
0.004852
0.013022
0.092992
0.048472
0.036455
0.046998
0.055941
0.080606
0.013483
0.007964
0.024699
0.039316
0.085635
0.046717
0.068972
0.012764
0.048570
0.015231
0.017505
0.021928
0.067055
0.021520
0.043180
0.080460
0.057176
0.049167
0.034054
0.012280
0.008671
0.066401
0.045382
0.057492
0.045638
0.036922
0.034842
0.077214
0.017794
0.014571
0.007977
0.035690
0.013074
0.066737
0.063574
0.101634
0.047761
0.062629
0.001776
0.036370
0.083336
0.022030
0.087382
0.066489
0.042178
0.025348
0.069048
0.070344
0.008672
0.008751
0.023240
0.011856
0.033377
0.021671
0.011471
0.020028
0.004310
0.102055
0.006319
0.006008
0.017818
0.035863
0.018762
0.023774
0.045147
0.011760
0.020542
0.014545
0.013080
0.016745
0.005025
0.014735
0.006230
0.080630
0.101020
0.084369
0.108676
0.020571
0.057812
0.022708
0.014150
0.048232
0.015257
0.016698
0.026484
0.008057
0.006623
0.035244
0.008166
0.057532
0.061034
0.028504
0.011920
0.013528
0.014224
0.043022
0.017119
0.032659
0.021760
0.033673
0.013102
0.064490
0.066212
0.017072
0.023455
0.010460
0.012696
0.008749
0.022708
0.029088
0.021117
0.063790
0.068726
0.047148
0.050657
0.085868
0.042056
0.124192
0.063005
0.104724
0.085801
0.085321
0.062257
0.094998
0.056907
0.003025
0.009107
0.009208
0.036711
0.043541
0.034633
0.034451
0.007837
0.014438
0.005700
0.081978
0.048215
0.088362
0.050287
0.051778
0.041451
0.016807
0.054557
0.022280
0.022969
0.014243
0.006401
0.083196
0.008824
0.018483
0.009747
0.042808
0.043071
0.049043
0.081677
0.086620
0.002057
0.100717
0.133639
0.100914
0.056569
0.007548
0.085338
0.053915
0.011206
0.030118
0.107789
0.040385
0.104252
0.079862
0.104929
0.058576
0.149637
0.140136
