# vtk DataFile Version 2.0
Unstructured Grid Example
ASCII
DATASET UNSTRUCTURED_GRID
POINTS 1221 float
0.000457 0.003399 -0.012682 
1.000645 -0.000710 0.005208 
0.996870 1.001817 -0.001603 
-0.003889 0.998954 0.003455 
-0.001165 -0.001963 0.037283 
1.000400 0.001904 0.055175 
1.002138 0.998482 0.048399 
0.003023 1.002700 0.053411 
-0.000738 0.048050 0.043690 
0.000485 0.097853 0.050628 
0.001144 0.148432 0.056647 
0.001328 0.199530 0.059591 
0.001561 0.250448 0.059573 
0.001182 0.300937 0.056859 
0.000776 0.351413 0.052623 
-0.000496 0.401266 0.047190 
-0.001439 0.450902 0.042424 
-0.001664 0.500226 0.040196 
-0.001689 0.549578 0.040893 
-0.001057 0.598712 0.044478 
0.000761 0.647905 0.051775 
0.002149 0.698159 0.058070 
0.002688 0.749300 0.062620 
0.002450 0.800154 0.064240 
0.001920 0.851017 0.063043 
0.002204 0.901931 0.060416 
0.002701 0.952532 0.057109 
0.000139 0.053256 -0.006336 
-0.000074 0.103474 0.000793 
-0.000507 0.152531 0.006457 
-0.000784 0.200822 0.009667 
-0.000484 0.249691 0.009367 
-0.000646 0.298705 0.007021 
-0.000616 0.347915 0.002545 
0.000019 0.397998 -0.002791 
0.000653 0.449312 -0.007431 
0.000980 0.499897 -0.009682 
0.001191 0.550912 -0.008965 
0.001290 0.601651 -0.005724 
-0.000431 0.652200 0.001181 
-0.001490 0.701627 0.008062 
-0.002968 0.750975 0.012600 
-0.003238 0.800272 0.014487 
-0.003144 0.849500 0.013219 
-0.003704 0.898866 0.010542 
-0.004027 0.948825 0.007113 
-0.000329 0.000738 0.012494 
-0.000423 1.000804 0.028402 
0.048949 -0.001658 0.039956 
0.098352 -0.000929 0.044215 
0.148184 -0.000206 0.048863 
0.198625 0.000506 0.053242 
0.249027 0.000654 0.056145 
0.299898 0.000775 0.057308 
0.350592 0.000571 0.056566 
0.401494 0.000531 0.053608 
0.451756 0.000110 0.049018 
0.501363 -0.000509 0.043682 
0.550522 -0.001638 0.039674 
0.599686 -0.001893 0.038098 
0.648893 -0.002133 0.038962 
0.698542 -0.001715 0.041810 
0.748463 -0.001219 0.045193 
0.799098 -0.000585 0.048856 
0.849665 -0.000096 0.051721 
0.900083 0.000525 0.053301 
0.950384 0.001401 0.054579 
0.050668 0.002979 -0.009972 
0.101244 0.001566 -0.005765 
0.151192 -0.000151 -0.001742 
0.200487 -0.000701 0.003219 
0.250380 -0.000897 0.006064 
0.299990 -0.000942 0.007360 
0.349217 -0.000617 0.006502 
0.398375 0.000075 0.003674 
0.447931 0.000930 -0.001090 
0.497984 0.001792 -0.006231 
0.548767 0.002230 -0.010316 
0.599446 0.002280 -0.011641 
0.650231 0.002278 -0.011130 
0.700745 0.001933 -0.008280 
0.750891 0.001071 -0.004297 
0.800893 0.000057 -0.001022 
0.850670 -0.000594 0.001777 
0.900713 -0.000702 0.003380 
0.950669 -0.000905 0.004505 
1.000523 0.000586 0.030115 
1.000279 0.051760 0.052227 
1.000351 0.101547 0.048945 
1.000358 0.150906 0.046729 
1.000247 0.200388 0.045762 
1.000141 0.249802 0.046477 
0.999407 0.299443 0.048952 
0.998811 0.348730 0.053585 
0.998242 0.399140 0.057615 
0.998059 0.449917 0.059590 
0.998554 0.500899 0.058333 
0.999001 0.551457 0.054297 
1.000362 0.602192 0.048602 
1.001359 0.651986 0.041598 
1.001956 0.700627 0.037713 
1.002565 0.750170 0.035749 
1.002345 0.799781 0.035740 
1.002338 0.849116 0.038172 
1.001920 0.898852 0.041508 
1.002163 0.948568 0.045041 
1.000232 0.049304 0.002108 
0.999843 0.099143 -0.001096 
0.999629 0.149813 -0.003404 
0.999604 0.200175 -0.004208 
0.999564 0.250791 -0.003532 
1.000137 0.301621 -0.001008 
1.000402 0.351539 0.003747 
1.001020 0.401443 0.007592 
1.001278 0.450343 0.009529 
1.001175 0.499201 0.008305 
1.001123 0.548996 0.004371 
1.000140 0.598246 -0.001581 
0.998989 0.648657 -0.007829 
0.998091 0.699460 -0.012543 
0.997259 0.750161 -0.014413 
0.997033 0.800881 -0.014144 
0.997185 0.851574 -0.011996 
0.997284 0.901697 -0.008408 
0.996981 0.951877 -0.005021 
0.999503 1.000161 0.023398 
0.951988 0.998500 0.053560 
0.901005 0.999141 0.057417 
0.849318 0.999511 0.058234 
0.798663 0.999995 0.055411 
0.747833 1.000363 0.049347 
0.699125 1.000425 0.043118 
0.649825 1.000542 0.038366 
0.601892 1.000774 0.038064 
0.553576 1.000572 0.044138 
0.504156 0.999448 0.054904 
0.452765 0.998490 0.065514 
0.401350 0.996936 0.072736 
0.348660 0.997011 0.072473 
0.296179 0.997693 0.064960 
0.246229 0.998587 0.053572 
0.197830 0.999900 0.044291 
0.150058 1.000427 0.038995 
0.101962 1.001534 0.041215 
0.052953 1.002396 0.046508 
0.947151 1.001558 0.003496 
0.898073 1.001296 0.007412 
0.849514 1.000407 0.008440 
0.801469 0.999786 0.004865 
0.752725 0.999456 -0.000681 
0.702576 0.999548 -0.006978 
0.651673 0.999854 -0.011841 
0.599424 1.000217 -0.011750 
0.547253 1.000886 -0.005633 
0.496284 1.002063 0.004708 
0.447988 1.002045 0.015414 
0.398958 1.003362 0.022448 
0.350499 1.003040 0.022626 
0.303384 1.002337 0.015292 
0.253399 1.001149 0.003618 
0.201446 0.999565 -0.006822 
0.149712 0.999593 -0.010776 
0.097702 0.998951 -0.009021 
0.046488 0.998877 -0.003372 
0.023102 1.000289 0.018953 
0.020789 1.001524 0.036080 
0.974583 1.000484 0.019828 
0.980792 0.999420 0.035884 
0.481878 1.000714 0.033907 
0.775110 0.999869 0.027671 
0.675425 1.000230 0.015184 
0.525932 1.000797 0.023700 
0.725319 1.000004 0.021127 
0.625759 1.000342 0.012235 
0.074704 1.000473 0.018267 
0.224381 0.999962 0.022651 
0.575585 1.000740 0.015606 
0.175065 0.999739 0.015720 
0.124918 0.999946 0.014378 
0.874639 1.000259 0.033518 
0.824361 0.999998 0.032303 
0.374930 1.000267 0.048566 
0.917807 1.000194 0.031352 
0.274306 0.999963 0.033933 
0.324455 1.000082 0.044895 
0.425011 1.000178 0.044789 
0.500424 0.499359 0.050096 
0.292632 0.295005 0.041984 
0.707352 0.704969 0.057818 
0.709503 0.291652 0.052706 
0.291154 0.710052 0.045715 
0.501613 0.782042 0.043682 
0.784315 0.497465 0.045829 
0.498699 0.223925 0.054235 
0.223430 0.501782 0.056834 
0.168974 0.170585 0.050009 
0.831267 0.169483 0.050167 
0.831038 0.830720 0.055706 
0.169744 0.830414 0.042429 
0.563434 0.640410 0.051271 
0.436064 0.359293 0.046293 
0.642978 0.437707 0.044933 
0.353729 0.566607 0.058418 
0.639155 0.847910 0.044694 
0.360406 0.154640 0.049605 
0.151500 0.360289 0.048692 
0.845830 0.359881 0.047197 
0.847026 0.641157 0.052084 
0.641442 0.152477 0.055185 
0.358402 0.844479 0.051543 
0.153530 0.635720 0.051374 
0.678334 0.580813 0.051927 
0.560711 0.331793 0.051421 
0.439883 0.668994 0.050431 
0.322011 0.419534 0.049677 
0.535181 0.882400 0.043318 
0.465175 0.117007 0.050974 
0.880904 0.466014 0.050868 
0.118457 0.465325 0.048768 
0.743553 0.896854 0.052245 
0.109195 0.258322 0.052553 
0.258689 0.098284 0.052125 
0.896720 0.255706 0.047271 
0.891120 0.736933 0.049289 
0.737169 0.109888 0.051588 
0.262469 0.888572 0.047672 
0.112007 0.738735 0.049221 
0.600524 0.740465 0.049885 
0.398170 0.260631 0.044788 
0.745207 0.405118 0.043490 
0.251296 0.598606 0.057276 
0.598736 0.520493 0.048023 
0.398297 0.473941 0.052689 
0.612065 0.254908 0.057868 
0.388466 0.746383 0.045007 
0.098301 0.094290 0.049471 
0.902718 0.094871 0.050222 
0.905886 0.902104 0.052376 
0.099144 0.906206 0.046684 
0.438077 0.902170 0.055327 
0.903042 0.563710 0.050540 
0.562980 0.095919 0.049192 
0.095479 0.562696 0.048308 
0.259090 0.202646 0.045852 
0.741117 0.797918 0.057665 
0.797587 0.258043 0.050085 
0.209854 0.745182 0.042054 
0.196788 0.279197 0.045915 
0.798588 0.715684 0.057212 
0.715225 0.206404 0.055799 
0.284563 0.791767 0.042804 
0.502282 0.411617 0.047569 
0.497671 0.588058 0.052232 
0.241187 0.364717 0.046012 
0.759326 0.633699 0.055330 
0.689811 0.499776 0.045861 
0.646563 0.346579 0.049991 
0.308867 0.503990 0.057789 
0.354367 0.655698 0.052508 
0.081519 0.182858 0.054817 
0.176638 0.083990 0.050487 
0.817733 0.919033 0.056382 
0.919480 0.182613 0.047321 
0.918280 0.820520 0.047271 
0.821153 0.082612 0.050930 
0.082856 0.818173 0.053126 
0.185233 0.914384 0.041322 
0.651203 0.655426 0.055121 
0.348095 0.343717 0.043245 
0.514103 0.697229 0.048549 
0.485693 0.304167 0.049764 
0.611621 0.917480 0.038943 
0.389743 0.083475 0.052695 
0.078058 0.394683 0.048332 
0.915986 0.389743 0.052219 
0.925855 0.660395 0.046343 
0.659881 0.073286 0.047034 
0.338195 0.922810 0.061952 
0.075565 0.661050 0.049965 
0.432489 0.820609 0.046875 
0.821065 0.565393 0.050035 
0.568449 0.177406 0.056838 
0.178296 0.566629 0.054986 
0.190457 0.430868 0.051310 
0.574009 0.819027 0.042942 
0.426050 0.179785 0.050697 
0.820661 0.427112 0.045786 
0.565351 0.457834 0.047086 
0.435632 0.541438 0.054341 
0.774501 0.332049 0.047495 
0.225309 0.669480 0.049639 
0.667199 0.781481 0.052592 
0.333523 0.219016 0.044492 
0.676840 0.931162 0.042845 
0.069577 0.317815 0.052788 
0.322564 0.070266 0.054332 
0.929575 0.322138 0.049393 
0.745997 0.558990 0.050000 
0.448164 0.736943 0.045806 
0.551653 0.264261 0.055676 
0.613854 0.594277 0.051693 
0.386154 0.405206 0.047894 
0.258756 0.441745 0.052364 
0.585479 0.393457 0.047980 
0.414996 0.606861 0.054643 
0.450979 0.427343 0.048585 
0.548955 0.571850 0.050693 
0.486212 0.933884 0.052813 
0.933480 0.515620 0.053863 
0.515789 0.064034 0.047144 
0.063572 0.514851 0.044594 
0.501408 0.839155 0.044099 
0.837047 0.507218 0.048110 
0.499818 0.151910 0.053678 
0.152182 0.500912 0.052034 
0.695245 0.843827 0.050880 
0.304093 0.157354 0.048559 
0.842422 0.302718 0.047396 
0.149894 0.702812 0.047015 
0.160710 0.231182 0.049444 
0.843170 0.773007 0.054637 
0.773528 0.157656 0.052293 
0.226555 0.841203 0.042168 
0.670568 0.238572 0.057479 
0.330814 0.760815 0.043537 
0.697475 0.356891 0.047564 
0.303105 0.645543 0.053657 
0.939821 0.607077 0.048274 
0.606265 0.059135 0.044463 
0.394623 0.937251 0.064806 
0.059210 0.606187 0.047274 
0.700677 0.433447 0.043446 
0.303765 0.558497 0.059712 
0.053890 0.052435 0.044825 
0.945720 0.055301 0.052067 
0.947601 0.944322 0.050796 
0.056638 0.948023 0.049516 
0.772474 0.946080 0.053371 
0.056974 0.232418 0.056959 
0.226540 0.054741 0.053241 
0.947312 0.771477 0.042206 
0.770909 0.053845 0.049592 
0.226602 0.943692 0.046348 
0.946780 0.227449 0.046317 
0.057296 0.771526 0.057155 
0.220454 0.160449 0.048845 
0.775362 0.847315 0.056512 
0.847808 0.224521 0.048790 
0.156978 0.775053 0.044232 
0.554404 0.948538 0.042960 
[...]
POINT_DATA 1221
SCALARS u float 1
LOOKUP_TABLE default
0.135183
0.054488
0.040730
0.054604
0.132955
0.056886
0.031612
0.054513
0.068380
0.023552
0.071258
0.099755
0.099918
0.072266
0.031679
0.032123
0.079888
0.102357
0.095405
0.059352
0.029321
0.087996
0.132968
0.148696
0.136066
0.111345
0.082482
0.073320
0.036673
0.071550
0.100156
0.096566
0.073770
0.034440
0.035350
0.077090
0.100144
0.093532
0.062725
0.026076
0.086005
0.133580
0.152778
0.139912
0.115569
0.084971
0.128961
0.036236
0.105307
0.062628
0.022152
0.036614
0.064370
0.075625
0.068097
0.040553
0.020736
0.066719
0.107715
0.124055
0.116244
0.087397
0.053422
0.016156
0.018069
0.034402
0.049435
0.107310
0.062787
0.021774
0.034267
0.063195
0.076349
0.067688
0.041341
0.025898
0.069871
0.109344
0.122191
0.116923
0.087827
0.046482
0.013980
0.020469
0.036274
0.047782
0.053246
0.029350
0.019605
0.035120
0.043863
0.036336
0.013655
0.041005
0.080903
0.100687
0.087523
0.047813
0.027006
0.089934
0.128188
0.149013
0.148720
0.124401
0.090366
0.057589
0.022971
0.014402
0.035287
0.043530
0.037510
0.019692
0.041887
0.080215
0.098994
0.086704
0.047573
0.024341
0.082397
0.130673
0.150980
0.148987
0.127823
0.092584
0.063306
0.017338
0.044704
0.077529
0.085169
0.057358
0.023586
0.071515
0.119859
0.124609
0.070903
0.066389
0.162895
0.236482
0.233697
0.160640
0.055397
0.062860
0.113325
0.093958
0.053127
0.049091
0.079928
0.087089
0.052341
0.029441
0.076686
0.123062
0.121073
0.065131
0.065264
0.161335
0.233817
0.234974
0.162943
0.052426
0.071898
0.111005
0.096396
0.051415
0.012750
0.019943
0.015781
0.009739
0.091975
0.027543
0.101133
0.015813
0.039992
0.131632
0.069524
0.024998
0.097102
0.095533
0.109303
0.087766
0.075438
0.242517
0.065614
0.092194
0.204800
0.203635
0.007971
0.082551
0.080523
0.029668
0.044924
0.065386
0.043297
0.044899
0.071532
0.007843
0.003894
0.059248
0.078280
0.013438
0.038274
0.052446
0.086807
0.056223
0.010673
0.013885
0.030563
0.022689
0.054611
0.025311
0.016889
0.020983
0.017711
0.007551
0.009421
0.070403
0.013436
0.017234
0.019807
0.024550
0.029266
0.022422
0.028118
0.016945
0.017108
0.026832
0.019760
0.006707
0.054742
0.067175
0.075411
0.021113
0.029843
0.081612
0.051802
0.010422
0.004061
0.025614
0.035552
0.057044
0.007963
0.013341
0.023343
0.043044
0.079506
0.004208
0.082239
0.042543
0.074446
0.060015
0.076333
0.025304
0.023555
0.041782
0.055343
0.043764
0.014451
0.080708
0.028185
0.051516
0.007232
0.065695
0.027845
0.030550
0.009897
0.038722
0.089315
0.053170
0.070061
0.016548
0.008179
0.114758
0.028186
0.017514
0.025713
0.038748
0.036002
0.126059
0.012171
0.036831
0.005085
0.070569
0.053032
0.015026
0.073058
0.012713
0.044569
0.030148
0.045303
0.027213
0.013302
0.027105
0.057085
0.074289
0.030590
0.045035
0.011383
0.006881
0.043649
0.059279
0.018590
0.022972
0.028959
0.021564
0.048053
0.016705
0.008681
0.033523
0.041862
0.032719
0.058555
0.062368
0.021553
0.038374
0.025410
0.019900
0.015960
0.026828
0.031969
0.012820
0.049352
0.024177
0.081007
0.077309
0.067776
0.028421
0.039823
0.018783
0.058466
0.154624
0.030607
0.067596
0.099948
0.056231
0.024593
0.023325
0.031091
0.034808
0.072908
0.033900
0.083189
0.013276
0.046424
0.038164
0.077447
0.013153
0.067032
0.013025
0.061022
0.073892
0.065504
0.009797
0.051898
0.016715
0.030530
0.046708
0.025303
0.040992
0.013985
0.021625
0.010040
0.007314
0.023154
0.060672
0.065560
0.068753
0.050376
0.082917
0.040582
0.018736
0.021845
0.068078
0.017413
0.053919
0.058173
0.089851
0.043375
0.039412
0.086322
0.047022
0.038855
0.011247
0.069900
0.097706
0.015438
0.017592
0.064923
0.089425
0.036631
0.083261
0.065635
0.081428
0.027154
0.035567
0.052587
0.079006
0.037991
0.051797
0.083986
0.005728
0.004741
0.026606
0.072891
0.041933
0.088906
0.016463
0.070130
0.025890
0.080175
0.012806
0.087170
0.050020
0.037629
0.077166
0.009432
0.013159
0.008682
0.030984
0.019006
0.024260
0.046759
0.074690
0.038345
0.057075
0.077383
0.043311
0.024050
0.057851
0.019916
0.020277
0.126983
0.025382
0.069717
0.064306
0.023385
0.010563
0.084894
0.024243
0.019329
0.010200
0.024542
0.009895
0.055809
0.082554
0.020984
0.027264
0.017273
0.035320
0.063756
0.053514
0.024034
0.065072
0.016409
0.033131
0.026214
0.015037
0.094954
0.018879
0.120168
0.011637
0.052775
0.032745
0.017741
0.011340
0.034364
0.020892
0.055322
0.011937
0.027490
0.009822
0.065834
0.073240
0.011025
0.049844
0.075626
0.013132
0.037406
0.067239
0.092720
0.011099
0.100097
0.100210
0.010658
0.031627
0.010793
0.039537
0.037363
0.008587
0.009759
0.008141
0.028098
0.017616
0.013383
0.027454
0.013599
0.043621
0.019635
0.027330
0.034988
0.028777
0.047193
0.034415
0.035134
0.168147
0.081619
0.074264
0.033541
0.043109
0.018000
0.008782
0.057064
0.022790
0.053894
0.026567
0.015074
0.079309
0.034488
0.048309
0.114614
0.034521
0.027896
0.061356
0.021226
0.003775
0.042700
0.025603
0.020182
0.008930
0.050663
0.026827
0.017168
0.038763
0.044025
0.038731
0.035482
0.089530
0.027089
0.041576
0.020642
0.012089
0.068696
0.040241
0.091261
0.020318
0.011879
0.029804
0.063032
0.065586
0.072476
0.034520
0.024984
0.077974
0.031793
0.013589
0.020787
0.019601
0.049128
0.067934
0.021303
0.047213
0.010561
0.049725
0.025515
0.036959
0.050483
0.062363
0.027952
0.011490
0.046119
0.014252
0.016493
0.011456
0.034642
0.066417
0.006803
0.080575
0.066675
0.060958
0.064055
0.057593
0.021903
0.026489
0.093288
0.036320
0.003435
0.030366
0.027655
0.013342
0.049572
0.061086
0.026778
0.070173
0.065296
0.091872
0.043421
0.063879
0.010967
0.068271
0.036342
0.011406
0.057613
0.065445
0.084217
0.077715
0.086926
0.057555
0.021327
0.016387
0.044868
0.005606
0.034155
0.042815
0.008407
0.007084
0.084910
0.033288
0.042355
0.087626
0.059988
0.079430
0.012243
0.051869
0.040732
0.064925
0.047762
0.023179
0.010737
0.065859
0.006772
0.043203
0.020989
0.056344
0.023182
0.024588
0.024070
0.042328
0.055636
0.085978
0.015749
0.195580
0.088826
0.039135
0.026594
0.040179
0.063188
0.057737
0.097194
0.048097
0.040298
0.014175
0.013311
0.004386
0.006494
0.011062
0.098102
0.014049
0.035561
0.007609
0.008083
0.012623
0.083778
0.056080
0.073021
0.007466
0.010723
0.043296
0.015430
0.043602
0.044235
0.008798
0.046230
0.035161
0.031045
0.039008
0.043080
0.073985
0.028293
0.150158
0.137294
0.104416
0.068302
0.043748
0.041377
0.025038
0.004283
0.014459
0.096927
0.092925
0.060903
0.014883
0.048079
0.141370
0.111459
0.050900
0.052255
0.119289
0.120836
0.081881
0.072314
0.028719
0.009443
0.043083
0.024657
0.011376
0.037420
0.048995
0.081372
0.054712
0.035595
0.074923
0.013914
0.120770
0.101836
0.064918
0.117449
0.007034
0.082546
0.080610
0.032014
0.051707
0.063601
0.042085
0.046169
0.073711
0.003357
0.006075
0.059639
0.074911
0.015029
0.040125
0.053352
0.086388
0.063458
0.009045
0.016212
0.031108
0.025768
0.054201
0.024688
0.015127
0.019952
0.007010
0.017924
0.005502
0.065652
0.024039
0.013101
0.013654
0.024237
0.026317
0.023030
0.027336
0.016869
0.017282
0.029702
0.018780
0.007666
0.050864
0.062549
0.071509
0.019510
0.028615
0.081900
0.054530
0.009194
0.005912
0.030142
0.040790
0.062789
0.004760
0.021205
0.019862
0.043244
0.077336
0.003983
0.079039
0.042171
0.075219
0.060092
0.073714
0.025716
0.023364
0.042479
0.055605
0.047934
0.078806
0.014113
0.025984
0.049670
0.007858
0.065710
0.027560
0.031236
0.012837
0.045213
0.087359
0.053249
0.019333
0.070057
0.004964
0.109521
0.026118
0.018112
0.024084
0.037585
0.034588
0.123917
0.003693
0.031102
0.006437
0.071410
0.054052
0.014647
0.072229
0.009024
0.049588
0.031283
0.044539
0.027478
0.028511
0.017647
0.058240
0.078090
0.028347
0.045309
0.013738
0.006032
0.045907
0.062623
0.018085
0.022412
0.029361
0.022138
0.048500
0.015907
0.008924
0.038856
0.039439
0.037914
0.055895
0.057974
0.021123
0.044782
0.022839
0.017729
0.018245
0.024815
0.032256
0.008736
0.050237
0.024884
0.083109
0.075481
0.062341
0.035394
0.043290
0.019792
0.057280
0.154793
0.030021
0.065818
0.099360
0.057301
0.021469
0.026794
0.036569
0.034564
0.070570
0.033905
0.087600
0.010950
0.049261
0.038079
0.080215
0.014455
0.070563
0.012176
0.058051
0.068726
0.062194
0.017090
0.048011
0.016418
0.031397
0.045849
0.027480
0.050039
0.012525
0.021173
0.009801
0.005188
0.040694
0.085978
0.065497
0.069185
0.023817
0.043906
0.038746
0.017008
0.020286
0.068259
0.018075
0.054979
0.062214
0.087879
0.019509
0.039278
0.044814
0.039654
0.015893
0.057687
0.086786
0.092602
0.013498
0.017086
0.064734
0.089884
0.035027
0.079748
0.066119
0.081613
0.035645
0.034956
0.052537
0.079396
0.039241
0.052162
0.082463
0.004857
0.007655
0.026898
0.072865
0.035301
0.083320
0.045266
0.070394
0.026320
0.081468
0.013874
0.089286
0.051876
0.045586
0.082291
0.008578
0.015229
0.009753
0.031513
0.016676
0.023302
0.039726
0.057620
0.076535
0.041224
0.021753
0.064714
0.017571
0.019494
0.127327
0.023921
0.071599
0.061702
0.024250
0.013359
0.081853
0.023027
0.016281
0.024009
0.019592
0.007294
0.054739
0.081966
0.021448
0.026984
0.018312
0.036417
0.062082
0.053931
0.025889
0.084752
0.064967
0.015863
0.032069
0.025739
0.014967
0.017339
0.064351
0.097745
0.121795
0.010335
0.049857
0.030643
0.018259
0.011041
0.034315
0.020738
0.055497
0.012011
0.030646
0.011215
0.073785
0.065809
0.015874
0.055814
0.074333
0.012491
0.036928
0.072134
0.096504
0.010407
0.102879
0.097364
0.013422
0.005527
0.058815
0.068229
0.034857
0.038037
0.068256
0.009190
0.008311
0.007080
0.032271
0.027688
0.064882
0.016297
0.011668
0.028117
0.013459
0.045710
0.021787
0.034991
0.027780
0.029521
0.033719
0.033871
0.166193
0.076721
0.075118
0.032573
0.019474
0.046230
0.006941
0.058389
0.022473
0.053650
0.025947
0.019161
0.074274
0.027797
0.028299
0.109650
0.034627
0.029647
0.059443
0.021625
0.004834
0.045581
0.025283
0.023832
0.009172
0.051869
0.029394
0.013998
0.037325
0.040944
0.032566
0.027646
0.041646
0.018732
0.015041
0.066938
0.038933
0.096070
0.018114
0.010135
0.069691
0.035953
0.025428
0.074519
0.014610
0.030548
0.020005
0.020784
0.017306
0.048409
0.022551
0.028956
0.050167
0.006504
0.053980
0.026164
0.044051
0.058437
0.067835
0.022538
0.027624
0.047419
0.013583
0.066973
0.015338
0.017413
0.067077
0.038379
0.066676
0.009600
0.054566
0.067091
0.057446
0.080435
0.052345
0.088212
0.032670
0.010845
0.073239
0.027870
0.013730
0.034498
0.049317
0.071498
0.026597
0.093349
0.041823
0.064601
0.012690
0.071794
0.040388
0.046020
0.007686
0.054702
0.069824
0.082041
0.083753
0.085005
0.050668
0.021438
0.041938
0.015146
0.050787
0.003219
0.035683
0.006414
0.002147
0.085635
0.034375
0.042189
0.089770
0.030139
0.054290
0.007297
0.052674
0.041618
0.063388
0.046752
0.024594
0.008910
0.006600
0.009487
0.036800
0.020024
0.052941
0.026212
0.024039
0.023558
0.040964
0.051232
0.084394
0.020695
0.199461
0.093145
0.036498
0.034445
0.043943
0.064318
0.059930
0.045636
0.040156
0.016629
0.018546
0.074444
0.095473
0.005025
0.005587
0.011072
0.101718
0.011428
0.033048
0.007385
0.010980
0.014488
0.085014
0.054248
0.068985
0.006915
0.006818
0.041151
0.045301
0.040595
0.012064
0.042214
0.055425
0.053613
0.100419
0.105804
0.101433
0.087725
0.143618
0.145648
0.122182
0.092016
0.102958
0.089113
0.040898
0.023470
0.051713
0.091485
0.005160
0.058912
0.027182
0.076732
0.112964
0.053366
