# vtk DataFile Version 2.0
Unstructured Grid Example
ASCII
DATASET UNSTRUCTURED_GRID
POINTS 1221 float
0.000093 -0.000738 0.003833 
1.000168 0.000641 -0.002812 
0.999905 1.000842 0.004326 
-0.000363 0.999102 -0.002484 
-0.000187 0.000848 0.053834 
0.999736 -0.000811 0.047192 
1.000068 0.999149 0.054324 
0.000405 1.000906 0.047513 
-0.000179 0.050852 0.052191 
-0.000216 0.100872 0.050478 
-0.000220 0.150796 0.048779 
-0.000227 0.200571 0.047407 
-0.000220 0.250271 0.046501 
-0.000204 0.300107 0.046106 
-0.000217 0.349917 0.046010 
-0.000177 0.399596 0.046470 
-0.000055 0.449331 0.047730 
-0.000018 0.499270 0.049393 
0.000105 0.549239 0.051250 
0.000162 0.599271 0.053067 
0.000349 0.649514 0.054676 
0.000395 0.699947 0.055479 
0.000413 0.750360 0.055370 
0.000395 0.800589 0.054373 
0.000405 0.850741 0.052958 
0.000403 0.900852 0.051197 
0.000400 0.950907 0.049357 
0.000133 0.049266 0.002192 
0.000174 0.099218 0.000459 
0.000227 0.149278 -0.001209 
0.000241 0.199443 -0.002621 
0.000206 0.249793 -0.003490 
0.000197 0.299859 -0.003898 
0.000156 0.349996 -0.004003 
0.000100 0.400309 -0.003500 
-0.000010 0.450511 -0.002261 
-0.000049 0.500690 -0.000605 
-0.000175 0.550667 0.001243 
-0.000257 0.600636 0.003043 
-0.000420 0.650457 0.004645 
-0.000471 0.700119 0.005467 
-0.000534 0.749714 0.005305 
-0.000460 0.799470 0.004429 
-0.000418 0.849248 0.002952 
-0.000405 0.899119 0.001211 
-0.000382 0.949102 -0.000643 
-0.000048 0.000053 0.028823 
0.000020 1.000003 0.022521 
0.049811 0.000804 0.054056 
0.099860 0.000700 0.054182 
0.149918 0.000626 0.054222 
0.199993 0.000499 0.054166 
0.250040 0.000512 0.054093 
0.300176 0.000506 0.053851 
0.350256 0.000377 0.053309 
0.400439 0.000340 0.052424 
0.450492 0.000272 0.051363 
0.500480 0.000182 0.050157 
0.550415 0.000011 0.049003 
0.600317 -0.000092 0.048045 
0.650256 -0.000269 0.047128 
0.700123 -0.000384 0.046421 
0.750001 -0.000541 0.046065 
0.799858 -0.000601 0.045971 
0.849793 -0.000656 0.046124 
0.899765 -0.000689 0.046442 
0.949736 -0.000770 0.046788 
0.050085 -0.000746 0.004054 
0.100050 -0.000697 0.004184 
0.150011 -0.000561 0.004277 
0.200007 -0.000501 0.004163 
0.250002 -0.000482 0.004089 
0.299867 -0.000441 0.003876 
0.349722 -0.000373 0.003281 
0.399583 -0.000267 0.002447 
0.449529 -0.000168 0.001351 
0.499525 -0.000049 0.000174 
0.549607 0.000051 -0.001003 
0.599691 0.000139 -0.001946 
0.649718 0.000352 -0.002834 
0.699778 0.000459 -0.003583 
0.749914 0.000590 -0.003985 
0.800022 0.000621 -0.004020 
0.850115 0.000627 -0.003868 
0.900142 0.000634 -0.003563 
0.950162 0.000655 -0.003205 
0.999952 -0.000085 0.022197 
0.999747 0.049204 0.048671 
0.999753 0.099232 0.050199 
0.999734 0.149341 0.051597 
0.999733 0.199425 0.052891 
0.999686 0.249561 0.053920 
0.999748 0.299910 0.054371 
0.999778 0.350252 0.054112 
0.999836 0.400650 0.053023 
0.999979 0.450864 0.051261 
1.000112 0.500898 0.049165 
1.000180 0.550760 0.047191 
1.000318 0.600505 0.045652 
1.000391 0.650138 0.044830 
1.000304 0.699676 0.044969 
1.000264 0.749399 0.045830 
1.000256 0.799335 0.047217 
1.000212 0.849239 0.048965 
1.000125 0.899178 0.050770 
1.000102 0.949161 0.052584 
1.000198 0.050637 -0.001315 
1.000230 0.100653 0.000202 
1.000284 0.150537 0.001637 
1.000300 0.200511 0.002886 
1.000328 0.250397 0.003931 
1.000305 0.300034 0.004385 
1.000283 0.349806 0.004087 
1.000203 0.399375 0.003057 
1.000097 0.449169 0.001229 
0.999973 0.499153 -0.000826 
0.999911 0.549323 -0.002807 
0.999734 0.599538 -0.004348 
0.999698 0.649878 -0.005148 
0.999733 0.700239 -0.005092 
0.999774 0.750532 -0.004164 
0.999828 0.800729 -0.002735 
0.999878 0.850854 -0.001066 
0.999899 0.900848 0.000778 
0.999909 0.950863 0.002572 
0.999987 0.999996 0.029314 
0.950083 0.999158 0.054431 
0.900055 0.999256 0.054448 
0.850012 0.999307 0.054469 
0.799992 0.999364 0.054376 
0.749933 0.999403 0.054185 
0.699842 0.999515 0.053811 
0.649776 0.999573 0.053103 
0.599543 0.999830 0.052131 
0.549486 0.999859 0.050821 
0.499513 1.000058 0.049434 
0.449579 1.000163 0.048223 
0.399560 1.000324 0.047098 
0.349672 1.000426 0.046027 
0.299932 1.000475 0.045353 
0.250101 1.000610 0.045054 
0.200230 1.000679 0.045169 
0.150324 1.000710 0.045522 
0.100383 1.000795 0.046137 
0.050403 1.000884 0.046789 
0.949912 1.000797 0.004410 
0.899954 1.000764 0.004448 
0.849955 1.000669 0.004474 
0.800016 1.000631 0.004347 
0.750079 1.000588 0.004186 
0.700180 1.000519 0.003852 
0.650286 1.000482 0.003125 
0.600376 1.000188 0.002108 
0.550490 1.000048 0.000806 
0.500453 0.999839 -0.000538 
0.450277 0.999744 -0.001756 
0.400317 0.999560 -0.002920 
0.350282 0.999478 -0.003987 
0.300153 0.999374 -0.004660 
0.249969 0.999259 -0.004942 
0.199828 0.999211 -0.004880 
0.149745 0.999237 -0.004461 
0.099681 0.999157 -0.003874 
0.049644 0.999118 -0.003206 
0.024232 0.999785 0.016048 
0.019974 1.000375 0.032640 
0.975660 1.000189 0.023266 
0.980234 0.999637 0.039785 
0.481644 0.999934 0.023981 
0.775002 0.999999 0.029290 
0.674962 1.000010 0.028508 
0.525736 0.999944 0.025184 
0.725000 1.000016 0.029073 
0.624936 1.000100 0.027654 
0.075025 0.999991 0.021435 
0.225012 0.999956 0.020029 
0.575063 0.999954 0.026426 
0.175046 0.999942 0.020311 
0.125032 0.999960 0.020811 
0.875010 1.000019 0.029458 
0.824981 0.999999 0.029430 
0.374995 0.999926 0.021552 
0.918344 1.000008 0.029458 
0.275018 0.999946 0.020109 
0.325014 0.999933 0.020622 
0.424958 0.999962 0.022633 
0.499922 0.499984 0.050254 
0.292215 0.295217 0.048635 
0.707905 0.705071 0.049247 
0.708970 0.290641 0.051189 
0.291064 0.709262 0.051069 
0.501329 0.781393 0.050358 
0.784650 0.498344 0.049928 
0.499486 0.223260 0.049959 
0.224173 0.502453 0.048957 
0.168065 0.171139 0.049759 
0.830824 0.169237 0.050379 
0.830473 0.830420 0.049441 
0.169298 0.830857 0.050540 
0.563713 0.640651 0.050503 
0.436204 0.359403 0.049528 
0.642400 0.437709 0.050905 
0.353313 0.566907 0.049955 
0.639841 0.846556 0.050918 
0.360797 0.154008 0.050800 
0.151155 0.360439 0.047089 
0.846631 0.360407 0.052682 
0.846643 0.641440 0.047186 
0.641568 0.153455 0.049184 
0.358411 0.846724 0.049031 
0.153992 0.634557 0.052265 
0.678534 0.581524 0.049923 
0.560559 0.330797 0.050404 
0.439257 0.669155 0.050486 
0.321574 0.420396 0.048805 
0.533545 0.881926 0.050403 
0.465450 0.117856 0.050171 
0.882382 0.466297 0.050539 
0.119862 0.465115 0.048212 
0.744342 0.896024 0.051627 
0.107757 0.258382 0.047417 
0.258582 0.098246 0.051958 
0.896358 0.255325 0.052710 
0.889936 0.736750 0.046769 
0.736860 0.110041 0.048406 
0.263132 0.890092 0.047947 
0.110578 0.738708 0.053500 
0.601177 0.739978 0.050298 
0.398910 0.260150 0.049599 
0.745211 0.404805 0.051559 
0.251825 0.597507 0.050656 
0.598377 0.520938 0.050575 
0.397909 0.474921 0.049598 
0.611675 0.253863 0.050247 
0.388069 0.745885 0.050345 
0.097397 0.095400 0.051388 
0.902172 0.094213 0.049109 
0.905336 0.901775 0.051327 
0.098901 0.906124 0.049356 
0.436680 0.903235 0.049048 
0.903325 0.563599 0.047460 
0.563394 0.096911 0.049014 
0.097021 0.562539 0.051080 
0.258582 0.202690 0.049774 
0.742072 0.797041 0.049464 
0.797065 0.257834 0.051589 
0.209141 0.745652 0.051838 
0.196085 0.279270 0.048034 
0.798479 0.716083 0.048029 
0.714552 0.206371 0.050073 
0.285377 0.793787 0.050147 
0.501961 0.411919 0.050069 
0.497192 0.588325 0.050440 
0.240675 0.365444 0.047915 
0.759427 0.634459 0.048615 
0.689690 0.500868 0.050404 
0.645837 0.345283 0.051034 
0.308688 0.504762 0.049251 
0.354063 0.654568 0.050537 
0.080047 0.183883 0.048558 
0.176942 0.084880 0.052174 
0.817658 0.918556 0.052172 
0.918890 0.181875 0.051551 
0.917364 0.820376 0.048596 
0.820766 0.082228 0.048142 
0.081215 0.818184 0.052513 
0.185598 0.914864 0.047800 
0.652067 0.655448 0.049904 
0.347946 0.344604 0.048839 
0.514031 0.696574 0.050523 
0.485844 0.303496 0.049907 
0.609968 0.917117 0.051454 
0.389729 0.083305 0.051496 
0.078243 0.394382 0.046730 
0.916964 0.390194 0.052714 
0.925260 0.660401 0.045814 
0.660529 0.074745 0.048052 
0.339702 0.925427 0.047403 
0.074759 0.661318 0.053718 
0.431026 0.821977 0.049817 
0.821251 0.566168 0.048316 
0.568636 0.177769 0.049628 
0.179686 0.566347 0.050554 
0.190255 0.431414 0.047807 
0.573658 0.818302 0.050609 
0.426737 0.179204 0.050287 
0.821644 0.427389 0.051444 
0.565361 0.457589 0.050518 
0.435242 0.542059 0.050126 
0.774155 0.331224 0.052086 
0.225672 0.668074 0.051745 
0.667779 0.781139 0.050008 
0.333225 0.218702 0.049875 
0.677181 0.929992 0.052226 
0.068349 0.318009 0.046621 
0.322687 0.070149 0.052374 
0.930090 0.322659 0.053635 
0.746007 0.559678 0.049302 
0.447821 0.736456 0.050402 
0.551919 0.263257 0.050108 
0.614248 0.594892 0.050351 
0.385884 0.405891 0.049233 
0.258402 0.443189 0.048409 
0.585323 0.392913 0.050644 
0.414513 0.607081 0.050316 
0.450544 0.428023 0.049756 
0.548587 0.572202 0.050519 
0.484595 0.934857 0.049493 
0.934826 0.515860 0.048784 
0.515588 0.065352 0.049683 
0.065413 0.514607 0.049714 
0.499974 0.838368 0.050155 
0.838088 0.507831 0.049399 
0.500430 0.152185 0.049838 
0.153516 0.500701 0.048995 
0.696791 0.842440 0.050641 
0.303822 0.157113 0.050842 
0.842188 0.302629 0.052658 
0.149579 0.702126 0.052928 
0.159384 0.231446 0.048358 
0.842243 0.772830 0.047940 
0.773038 0.157698 0.049610 
0.226983 0.842443 0.049457 
0.669878 0.237994 0.050381 
0.329982 0.762011 0.050424 
0.696770 0.355705 0.051406 
0.303236 0.644173 0.050738 
0.939895 0.606899 0.046102 
0.606736 0.060325 0.048305 
0.393503 0.939964 0.047907 
0.060443 0.606038 0.052723 
0.700253 0.433440 0.051118 
0.303904 0.558351 0.049845 
0.054241 0.054901 0.052419 
0.945346 0.053369 0.048306 
0.945988 0.944757 0.052640 
0.054909 0.946765 0.048641 
0.772764 0.945411 0.052940 
0.055454 0.232463 0.047252 
0.226824 0.054722 0.052956 
0.945426 0.771080 0.046868 
0.771566 0.054305 0.047235 
0.229098 0.945481 0.046545 
0.946270 0.226536 0.052842 
0.055364 0.772029 0.054151 
0.219883 0.160554 0.050412 
0.775404 0.846858 0.050258 
0.847344 0.224341 0.051599 
0.155939 0.775239 0.052125 
0.552972 0.947673 0.050725 
[...]
POINT_DATA 1221
SCALARS u float 1
LOOKUP_TABLE default
0.105048
0.077723
0.118617
0.071741
0.105778
0.078965
0.118597
0.072033
0.063433
0.027372
0.039666
0.071689
0.094612
0.104955
0.107534
0.095708
0.063708
0.025538
0.039469
0.084938
0.126846
0.147816
0.145224
0.119193
0.082766
0.040984
0.031798
0.062293
0.024851
0.038383
0.072374
0.094223
0.105083
0.107790
0.094575
0.062359
0.024718
0.038250
0.083941
0.126077
0.147686
0.143657
0.120657
0.082744
0.041731
0.031455
0.102885
0.066700
0.111360
0.114160
0.114864
0.112897
0.110981
0.104606
0.089882
0.066922
0.039679
0.014445
0.029053
0.053341
0.077916
0.096893
0.106875
0.109660
0.105917
0.097703
0.089168
0.110923
0.114141
0.116077
0.112827
0.110783
0.105028
0.089161
0.067178
0.038748
0.013671
0.029009
0.053156
0.077217
0.097366
0.108402
0.109459
0.105478
0.097441
0.088115
0.075468
0.042243
0.022359
0.047043
0.079641
0.106475
0.117837
0.111011
0.083323
0.041137
0.033119
0.078437
0.118088
0.139550
0.135904
0.113573
0.077295
0.035038
0.030499
0.073139
0.039681
0.019398
0.046975
0.079256
0.106680
0.118260
0.110339
0.084142
0.040002
0.031845
0.077729
0.117861
0.138798
0.137342
0.113105
0.076311
0.036890
0.031102
0.073028
0.116079
0.121381
0.121342
0.121681
0.118966
0.113760
0.103444
0.084486
0.058821
0.026345
0.020148
0.049325
0.079468
0.107865
0.125689
0.134111
0.131414
0.122298
0.106625
0.090269
0.120600
0.121429
0.121733
0.118199
0.113746
0.104697
0.085419
0.057828
0.025418
0.019416
0.048334
0.079902
0.108458
0.126588
0.134467
0.133096
0.121965
0.107020
0.089969
0.076683
0.075542
0.117896
0.117953
0.027495
0.115418
0.094401
0.005173
0.109582
0.071477
0.095927
0.133751
0.038393
0.126190
0.112712
0.119944
0.119200
0.092794
0.119954
0.131618
0.117816
0.063697
0.007157
0.037519
0.021254
0.032266
0.029017
0.009691
0.010730
0.001206
0.029239
0.014824
0.016366
0.021919
0.021953
0.013686
0.013342
0.024521
0.004052
0.025491
0.022625
0.078492
0.072497
0.076310
0.022361
0.027595
0.061731
0.007334
0.011373
0.013204
0.032511
0.012520
0.007483
0.022822
0.049956
0.046252
0.069756
0.054016
0.073804
0.087646
0.043995
0.056757
0.094691
0.009524
0.012074
0.042227
0.019891
0.015494
0.011475
0.007535
0.009356
0.041129
0.029265
0.039622
0.027104
0.026316
0.069684
0.027273
0.033596
0.012123
0.016853
0.043841
0.049801
0.053605
0.053586
0.007269
0.011539
0.003590
0.011932
0.056301
0.038020
0.012088
0.028037
0.020644
0.014623
0.041769
0.060680
0.060655
0.044709
0.041412
0.052584
0.070195
0.062188
0.005318
0.031489
0.014090
0.004315
0.039649
0.041303
0.088297
0.073511
0.112951
0.053015
0.070778
0.100448
0.008533
0.046498
0.010821
0.021605
0.059223
0.016442
0.009818
0.040859
0.014259
0.004247
0.056238
0.047500
0.006018
0.009271
0.060773
0.091132
0.065191
0.098031
0.020617
0.010931
0.003705
0.010080
0.020844
0.043161
0.017626
0.008610
0.006989
0.013989
0.015215
0.037168
0.013126
0.018406
0.007981
0.022107
0.005192
0.030371
0.020993
0.024207
0.071854
0.079043
0.044982
0.056797
0.014580
0.020137
0.011677
0.012779
0.038003
0.020397
0.105655
0.046005
0.057369
0.075010
0.030314
0.008380
0.068648
0.050125
0.074432
0.044323
0.080605
0.074250
0.080536
0.085851
0.075762
0.094393
0.078194
0.112697
0.015551
0.018554
0.044260
0.059425
0.020696
0.037334
0.027951
0.066673
0.072911
0.079711
0.026042
0.032946
0.012612
0.004764
0.004172
0.014452
0.072498
0.008281
0.018812
0.043606
0.020191
0.006500
0.026017
0.020637
0.080389
0.024658
0.079609
0.067627
0.021341
0.046240
0.076290
0.018417
0.022252
0.011444
0.039587
0.016733
0.013016
0.024386
0.025339
0.020779
0.056231
0.034955
0.032240
0.028460
0.032330
0.052290
0.039060
0.013427
0.007406
0.058095
0.115209
0.072239
0.123187
0.093762
0.030459
0.024265
0.018272
0.027098
0.007309
0.008109
0.012383
0.010527
0.020008
0.030064
0.022891
0.029985
0.022254
0.017461
0.040553
0.090667
0.035518
0.069006
0.054910
0.012797
0.002311
0.032636
0.009387
0.065903
0.058576
0.008811
0.012311
0.035052
0.038991
0.042839
0.084921
0.041077
0.077475
0.030290
0.039262
0.044180
0.027734
0.034192
0.008018
0.031816
0.011282
0.022728
0.087380
0.006472
0.003515
0.008182
0.007812
0.066734
0.078848
0.091921
0.081262
0.100036
0.029903
0.035861
0.052695
0.011763
0.009718
0.017073
0.053291
0.061038
0.097869
0.067771
0.095435
0.044331
0.009053
0.019888
0.015806
0.035219
0.019286
0.031589
0.044494
0.014688
0.019899
0.043974
0.043178
0.050128
0.090447
0.054408
0.092619
0.050361
0.083673
0.088061
0.094400
0.012484
0.010508
0.083281
0.007083
0.033466
0.011291
0.002184
0.018862
0.011360
0.025758
0.054753
0.007593
0.014208
0.011563
0.013476
0.003972
0.000845
0.008080
0.022108
0.004629
0.028666
0.096947
0.128317
0.073009
0.120373
0.012474
0.005978
0.094583
0.047630
0.036373
0.046906
0.056513
0.081536
0.014311
0.002627
0.020166
0.040156
0.087250
0.046971
0.066107
0.010299
0.049899
0.014934
0.017408
0.020549
0.067454
0.021499
0.043079
0.079490
0.057677
0.048199
0.031307
0.017826
0.010668
0.011905
0.008419
0.067394
0.044380
0.056481
0.045106
0.036868
0.036639
0.076836
0.025261
0.008101
0.040149
0.019019
0.014938
0.008695
0.036289
0.065815
0.063010
0.101058
0.046284
0.061895
0.012107
0.038209
0.083199
0.024423
0.087342
0.066770
0.042373
0.024840
0.068567
0.070836
0.013049
0.008230
0.024777
0.032342
0.021416
0.019436
0.004656
0.099489
0.035429
0.012041
0.008421
0.004465
0.018978
0.005334
0.027810
0.024562
0.046714
0.014332
0.009775
0.014272
0.013730
0.005098
0.022357
0.006066
0.013979
0.032011
0.079125
0.100058
0.083268
0.108512
0.020711
0.058155
0.015186
0.047198
0.014700
0.016598
0.025118
0.005920
0.008068
0.036288
0.056164
0.059419
0.028833
0.012169
0.008977
0.013482
0.013643
0.043181
0.015799
0.033187
0.021158
0.039947
0.014385
0.063600
0.065882
0.016840
0.020519
0.009054
0.012449
0.022620
0.020195
0.028947
0.021457
0.064850
0.069898
0.046169
0.050142
0.086559
0.041142
0.124900
0.062157
0.104626
0.083816
0.085838
0.063777
0.095609
0.057416
0.000889
0.008706
0.009540
0.010649
0.036643
0.042787
0.033150
0.013859
0.005493
0.083777
0.048741
0.087337
0.052025
0.052695
0.041728
0.017822
0.054099
0.022245
0.023734
0.014076
0.006497
0.082286
0.008703
0.008786
0.019155
0.011977
0.043297
0.093824
0.098356
0.056273
0.060811
0.042350
0.115960
0.094260
0.052038
0.003671
0.045581
0.092707
0.061322
0.025159
0.010023
0.117594
0.007019
0.059136
0.099831
0.098659
0.130741
0.126517
0.141428
0.080915
0.080597
0.106278
0.106126
0.007454
0.108275
0.100389
0.107703
0.091439
0.109209
0.113410
0.114093
0.111303
0.112304
0.077893
0.021944
0.097546
0.050821
0.063802
0.087142
0.102885
0.041270
0.007291
0.037462
0.020672
0.033442
0.030864
0.009067
0.009874
0.002165
0.027684
0.017298
0.017674
0.020823
0.024775
0.012866
0.013588
0.026098
0.003553
0.026079
0.022543
0.077450
0.073419
0.074727
0.022714
0.027577
0.061561
0.005514
0.033130
0.011504
0.013454
0.012121
0.008461
0.021683
0.050045
0.047899
0.070790
0.054447
0.073050
0.088292
0.043566
0.058677
0.095086
0.009839
0.010880
0.042987
0.019812
0.015820
0.011441
0.009464
0.010228
0.040268
0.029042
0.040614
0.028900
0.027868
0.068263
0.027638
0.034020
0.011901
0.016418
0.044816
0.049330
0.052900
0.053402
0.009939
0.013625
0.004399
0.012262
0.056881
0.037492
0.013177
0.021208
0.027306
0.014028
0.041513
0.059562
0.061401
0.044435
0.041028
0.052715
0.070851
0.062642
0.005200
0.014091
0.030791
0.004618
0.038808
0.039796
0.086797
0.074131
0.113599
0.054083
0.070569
0.102844
0.009125
0.046276
0.011981
0.023885
0.058858
0.015746
0.008957
0.041738
0.014329
0.004239
0.006626
0.053992
0.048086
0.008553
0.060767
0.092059
0.065334
0.098233
0.019014
0.011172
0.004777
0.009359
0.020825
0.042400
0.018097
0.009018
0.007127
0.014435
0.016470
0.038871
0.013303
0.017488
0.006944
0.022187
0.005009
0.029831
0.019426
0.024167
0.070830
0.079862
0.044690
0.057118
0.014688
0.022790
0.012697
0.012661
0.041002
0.023224
0.103877
0.046199
0.059584
0.075330
0.020591
0.015078
0.067523
0.047927
0.073382
0.044003
0.080913
0.074951
0.080539
0.084691
0.075376
0.096278
0.077950
0.109007
0.015244
0.015576
0.045017
0.060355
0.019820
0.035434
0.027439
0.066287
0.073400
0.080332
0.026593
0.035459
0.006580
0.005289
0.004199
0.015107
0.070977
0.012488
0.027847
0.043786
0.019567
0.007975
0.012889
0.019102
0.079377
0.023185
0.079595
0.066854
0.020672
0.047212
0.075676
0.010924
0.022166
0.039124
0.017814
0.013004
0.033618
0.007651
0.024698
0.020013
0.054353
0.034400
0.032802
0.028295
0.031957
0.051939
0.038440
0.005359
0.014320
0.057016
0.116338
0.072990
0.125398
0.094936
0.030843
0.023633
0.016408
0.028150
0.008631
0.010109
0.019059
0.010435
0.019481
0.030696
0.023674
0.029156
0.023113
0.019378
0.041788
0.088951
0.035688
0.068831
0.054159
0.013194
0.002731
0.066312
0.058349
0.010232
0.012913
0.035181
0.039223
0.041369
0.085888
0.040894
0.078752
0.030827
0.039585
0.042139
0.026790
0.033478
0.009140
0.033284
0.011680
0.021303
0.088536
0.006932
0.005425
0.008374
0.007986
0.066520
0.080411
0.092839
0.081491
0.100078
0.012473
0.029082
0.035167
0.052361
0.012065
0.010080
0.053316
0.025613
0.009503
0.062900
0.098878
0.065389
0.096474
0.044828
0.005939
0.018939
0.016424
0.035380
0.018839
0.033640
0.043925
0.020304
0.013859
0.044430
0.044841
0.049393
0.090873
0.053817
0.093656
0.049725
0.083187
0.088286
0.094347
0.083055
0.012886
0.020308
0.036349
0.006369
0.032845
0.031341
0.011722
0.002972
0.019337
0.026589
0.011835
0.008247
0.025837
0.053894
0.007790
0.014746
0.011876
0.013604
0.002409
0.005295
0.007873
0.003340
0.028863
0.097193
0.127938
0.073783
0.124199
0.004852
0.013022
0.092992
0.048472
0.036455
0.046998
0.055941
0.080606
0.013483
0.007964
0.024699
0.039316
0.085635
0.046717
0.068972
0.012764
0.048570
0.015231
0.017505
0.021928
0.067055
0.021520
0.043180
0.080460
0.057176
0.049167
0.034054
0.012280
0.008671
0.066401
0.045382
0.057492
0.045638
0.036922
0.034842
0.077214
0.017794
0.014571
0.007977
0.035690
0.013074
0.066737
0.063574
0.101634
0.047761
0.062629
0.001776
0.036370
0.083336
0.022030
0.087382
0.066489
0.042178
0.025348
0.069048
0.070344
0.008672
0.008751
0.023240
0.011856
0.033377
0.021671
0.011471
0.020028
0.004310
0.102055
0.006319
0.006008
0.017818
0.035863
0.018762
0.023774
0.045147
0.011760
0.020542
0.014545
0.013080
0.016745
0.005025
0.014735
0.006230
0.080630
0.101020
0.084369
0.108676
0.020571
0.057812
0.022708
0.014150
0.048232
0.015257
0.016698
0.026484
0.008057
0.006623
0.035244
0.008166
0.057532
0.061034
0.028504
0.011920
0.013528
0.014224
0.043022
0.017119
0.032659
0.021760
0.033673
0.013102
0.064490
0.066212
0.017072
0.023455
0.010460
0.012696
0.008749
0.022708
0.029088
0.021117
0.063790
0.068726
0.047148
0.050657
0.085868
0.042056
0.124192
0.063005
0.104724
0.085801
0.085321
0.062257
0.094998
0.056907
0.003025
0.009107
0.009208
0.036711
0.043541
0.034633
0.034451
0.007837
0.014438
0.005700
0.081978
0.048215
0.088362
0.050287
0.051778
0.041451
0.016807
0.054557
0.022280
0.022969
0.014243
0.006401
0.083196
0.008824
0.018483
0.009747
0.042808
0.043071
0.049043
0.081677
0.086620
0.002057
0.100717
0.133639
0.100914
0.056569
0.007548
0.085338
0.053915
0.011206
0.030118
0.107789
0.040385
0.104252
0.079862
0.104929
0.058576
0.149637
0.140136
