# vtk DataFile Version 2.0
Unstructured Grid Example
ASCII
DATASET UNSTRUCTURED_GRID
POINTS 1221 float
0.000175 0.001300 -0.004850 
1.000247 -0.000271 0.001992 
0.998803 1.000695 -0.000613 
-0.001487 0.999600 0.001321 
-0.000446 -0.000751 0.045136 
1.000153 0.000728 0.051979 
1.000818 0.999420 0.049388 
0.001156 1.001033 0.051305 
-0.000282 0.049254 0.047587 
0.000186 0.099179 0.050240 
0.000438 0.149400 0.052542 
0.000508 0.199820 0.053668 
0.000597 0.250171 0.053661 
0.000452 0.300358 0.052623 
0.000297 0.350540 0.051003 
-0.000190 0.400484 0.048925 
-0.000550 0.450345 0.047103 
-0.000636 0.500086 0.046250 
-0.000646 0.549839 0.046517 
-0.000404 0.599507 0.047888 
0.000291 0.649199 0.050679 
0.000822 0.699296 0.053086 
0.001028 0.749732 0.054826 
0.000937 0.800059 0.055446 
0.000734 0.850389 0.054988 
0.000843 0.900738 0.053984 
0.001033 0.950968 0.052719 
0.000053 0.051245 -0.002423 
-0.000028 0.101329 0.000303 
-0.000194 0.150968 0.002469 
-0.000300 0.200314 0.003697 
-0.000185 0.249882 0.003582 
-0.000247 0.299505 0.002685 
-0.000236 0.349203 0.000973 
0.000007 0.399234 -0.001068 
0.000250 0.449737 -0.002842 
0.000375 0.499961 -0.003703 
0.000456 0.550349 -0.003429 
0.000493 0.600632 -0.002189 
-0.000165 0.650842 0.000452 
-0.000570 0.700622 0.003083 
-0.001135 0.750373 0.004819 
-0.001238 0.800104 0.005541 
-0.001202 0.849809 0.005055 
-0.001417 0.899566 0.004032 
-0.001540 0.949551 0.002720 
-0.000126 0.000282 0.020217 
-0.000162 1.000308 0.026301 
0.049598 -0.000634 0.046159 
0.099370 -0.000355 0.047788 
0.149305 -0.000079 0.049565 
0.199474 0.000194 0.051240 
0.249628 0.000250 0.052350 
0.299961 0.000296 0.052795 
0.350226 0.000218 0.052511 
0.400571 0.000203 0.051380 
0.450672 0.000042 0.049625 
0.500521 -0.000195 0.047584 
0.550200 -0.000627 0.046051 
0.599880 -0.000724 0.045448 
0.649577 -0.000816 0.045779 
0.699443 -0.000656 0.046868 
0.749412 -0.000466 0.048162 
0.799655 -0.000224 0.049562 
0.849872 -0.000037 0.050658 
0.900032 0.000201 0.051262 
0.950147 0.000536 0.051751 
0.050255 0.001139 -0.003814 
0.100476 0.000599 -0.002205 
0.150456 -0.000058 -0.000666 
0.200186 -0.000268 0.001231 
0.250145 -0.000343 0.002319 
0.299996 -0.000360 0.002815 
0.349701 -0.000236 0.002487 
0.399379 0.000029 0.001405 
0.449209 0.000356 -0.000417 
0.499229 0.000685 -0.002383 
0.549529 0.000853 -0.003945 
0.599788 0.000872 -0.004452 
0.650088 0.000871 -0.004256 
0.700285 0.000739 -0.003167 
0.750341 0.000410 -0.001643 
0.800342 0.000022 -0.000391 
0.850256 -0.000227 0.000679 
0.900273 -0.000269 0.001293 
0.950256 -0.000346 0.001723 
1.000200 0.000224 0.026956 
1.000107 0.050673 0.050852 
1.000134 0.100592 0.049597 
1.000137 0.150347 0.048749 
1.000094 0.200148 0.048379 
1.000054 0.249924 0.048653 
0.999773 0.299787 0.049599 
0.999545 0.349514 0.051371 
0.999328 0.399671 0.052912 
0.999258 0.449968 0.053668 
0.999447 0.500344 0.053187 
0.999618 0.550557 0.051644 
1.000138 0.600838 0.049466 
1.000520 0.650760 0.046787 
1.000748 0.700240 0.045301 
1.000981 0.750065 0.044550 
1.000897 0.799916 0.044547 
1.000894 0.849662 0.045476 
1.000734 0.899561 0.046752 
1.000827 0.949452 0.048103 
1.000089 0.049734 0.000806 
0.999940 0.099672 -0.000419 
0.999858 0.149929 -0.001302 
0.999848 0.200067 -0.001609 
0.999833 0.250302 -0.001351 
1.000052 0.300620 -0.000386 
1.000154 0.350589 0.001433 
1.000390 0.400552 0.002904 
1.000489 0.450131 0.003644 
1.000450 0.499694 0.003176 
1.000429 0.549616 0.001672 
1.000054 0.599329 -0.000605 
0.999613 0.649486 -0.002994 
0.999270 0.699793 -0.004797 
0.998952 0.750061 -0.005512 
0.998865 0.800337 -0.005409 
0.998924 0.850602 -0.004588 
0.998961 0.900649 -0.003216 
0.998845 0.950718 -0.001920 
0.999810 1.000062 0.024387 
0.950760 0.999426 0.051361 
0.900384 0.999672 0.052837 
0.849739 0.999813 0.053149 
0.799489 0.999998 0.052070 
0.749171 1.000139 0.049750 
0.699665 1.000163 0.047368 
0.649933 1.000207 0.045551 
0.600723 1.000296 0.045435 
0.551367 1.000219 0.047758 
0.501589 0.999789 0.051876 
0.451057 0.999422 0.055933 
0.400516 0.998828 0.058695 
0.349487 0.998857 0.058595 
0.298539 0.999118 0.055721 
0.248558 0.999459 0.051366 
0.199170 0.999962 0.047816 
0.150022 1.000163 0.045791 
0.100750 1.000587 0.046640 
0.051129 1.000916 0.048665 
0.948911 1.000596 0.001337 
0.899263 1.000496 0.002835 
0.849814 1.000156 0.003228 
0.800562 0.999918 0.001861 
0.751042 0.999792 -0.000261 
0.700985 0.999827 -0.002669 
0.650640 0.999944 -0.004528 
0.599780 1.000083 -0.004494 
0.548950 1.000339 -0.002154 
0.498579 1.000789 0.001801 
0.449231 1.000782 0.005895 
0.399601 1.001286 0.008585 
0.350191 1.001163 0.008653 
0.301294 1.000894 0.005848 
0.251300 1.000439 0.001384 
0.200553 0.999834 -0.002609 
0.149890 0.999844 -0.004121 
0.099121 0.999599 -0.003450 
0.048657 0.999570 -0.001290 
0.023845 1.000111 0.018914 
0.020173 1.000583 0.035670 
0.975269 1.000185 0.019248 
0.980432 0.999778 0.035595 
0.481748 1.000273 0.028406 
0.775042 0.999950 0.026022 
0.675163 1.000088 0.021246 
0.525814 1.000305 0.024503 
0.725122 1.000001 0.023519 
0.625290 1.000131 0.020118 
0.074887 1.000181 0.022425 
0.224763 0.999985 0.024102 
0.575275 1.000283 0.021407 
0.175025 0.999900 0.021451 
0.124969 0.999979 0.020938 
0.874862 1.000099 0.028257 
0.824756 0.999999 0.027793 
0.374973 1.000102 0.034013 
0.918132 1.000074 0.027429 
0.274735 0.999986 0.028416 
0.324791 1.000031 0.032609 
0.425004 1.000068 0.032568 
0.500162 0.499755 0.050037 
0.292437 0.294971 0.046934 
0.707546 0.705035 0.052990 
0.709239 0.291098 0.051035 
0.291013 0.709554 0.048361 
0.501458 0.781654 0.047584 
0.784401 0.497798 0.048405 
0.499194 0.223506 0.051620 
0.223942 0.502377 0.052614 
0.168506 0.170636 0.050003 
0.831098 0.169606 0.050064 
0.830594 0.830888 0.052182 
0.169289 0.830355 0.047105 
0.563565 0.640540 0.050486 
0.436243 0.359346 0.048582 
0.642647 0.437646 0.048062 
0.353511 0.566872 0.053219 
0.639565 0.847218 0.047971 
0.360629 0.154091 0.049849 
0.151378 0.360455 0.049500 
0.846407 0.360068 0.048928 
0.846589 0.641238 0.050797 
0.641493 0.153175 0.051983 
0.358447 0.845661 0.050590 
0.153690 0.635189 0.050525 
0.678298 0.581224 0.050737 
0.560693 0.331193 0.050543 
0.439534 0.669108 0.050165 
0.321848 0.420037 0.049876 
0.534305 0.882158 0.047445 
0.465210 0.117544 0.050372 
0.881759 0.465789 0.050332 
0.119352 0.465503 0.049529 
0.744021 0.896683 0.050859 
0.108422 0.258278 0.050976 
0.258654 0.097989 0.050813 
0.896632 0.255696 0.048956 
0.890204 0.736996 0.049728 
0.737086 0.110181 0.050607 
0.262775 0.889230 0.049110 
0.110931 0.738599 0.049702 
0.600813 0.740193 0.049956 
0.398688 0.260226 0.048007 
0.745229 0.404817 0.047510 
0.251530 0.598116 0.052783 
0.598520 0.520754 0.049244 
0.398132 0.474592 0.051028 
0.611883 0.254320 0.053009 
0.388237 0.746057 0.048091 
0.097867 0.094601 0.049798 
0.902522 0.094823 0.050085 
0.905467 0.902288 0.050909 
0.098786 0.905725 0.048732 
0.437314 0.902734 0.052037 
0.903067 0.563369 0.050207 
0.563090 0.096536 0.049691 
0.096367 0.562981 0.049353 
0.258831 0.202439 0.048413 
0.741563 0.797516 0.052931 
0.797352 0.258119 0.050032 
0.209350 0.745351 0.046961 
0.196423 0.279056 0.048438 
0.798344 0.715940 0.052758 
0.714865 0.206534 0.052218 
0.285054 0.792766 0.047248 
0.502154 0.411808 0.049070 
0.497409 0.588232 0.050854 
0.240972 0.365135 0.048475 
0.759220 0.634131 0.052038 
0.689655 0.500360 0.048417 
0.646193 0.345795 0.049997 
0.308808 0.504555 0.052979 
0.354161 0.655051 0.050959 
0.080733 0.183158 0.051842 
0.176891 0.084174 0.050186 
0.817645 0.919110 0.052441 
0.919281 0.182487 0.048975 
0.917619 0.820809 0.048956 
0.821051 0.082723 0.050356 
0.081612 0.817814 0.051195 
0.185285 0.914278 0.046681 
0.651630 0.655444 0.051958 
0.348092 0.344242 0.047417 
0.514058 0.696803 0.049445 
0.485864 0.303730 0.049910 
0.610745 0.917292 0.045771 
0.389597 0.083209 0.051031 
0.078263 0.394646 0.049362 
0.916687 0.389854 0.050849 
0.925304 0.660458 0.048601 
0.660262 0.074367 0.048866 
0.339151 0.924168 0.054571 
0.074876 0.661292 0.049987 
0.431693 0.821335 0.048805 
0.821019 0.565694 0.050013 
0.568532 0.177718 0.052615 
0.179081 0.566806 0.051907 
0.190433 0.431265 0.050501 
0.573819 0.818589 0.047301 
0.426441 0.179291 0.050267 
0.821267 0.426993 0.048388 
0.565425 0.457664 0.048885 
0.435443 0.541849 0.051660 
0.774364 0.331544 0.049042 
0.225410 0.668720 0.049862 
0.667422 0.781296 0.050991 
0.333388 0.218630 0.047894 
0.677148 0.930653 0.047264 
0.068942 0.317864 0.051066 
0.322660 0.069895 0.051657 
0.930046 0.322461 0.049768 
0.745815 0.559361 0.050000 
0.447962 0.736607 0.048396 
0.551848 0.263685 0.052171 
0.614020 0.594630 0.050647 
0.386049 0.405652 0.049195 
0.258657 0.442683 0.050904 
0.585455 0.393112 0.049228 
0.414727 0.607009 0.051776 
0.450761 0.427783 0.049459 
0.548748 0.572063 0.050265 
0.485328 0.934382 0.051076 
0.934227 0.515373 0.051478 
0.515437 0.064822 0.048908 
0.064646 0.515079 0.047933 
0.500652 0.838757 0.047743 
0.837603 0.507261 0.049277 
0.500140 0.152114 0.051406 
0.153027 0.501099 0.050778 
0.696129 0.843236 0.050336 
0.303981 0.157017 0.049449 
0.842378 0.302784 0.049004 
0.149555 0.702402 0.048858 
0.160021 0.231199 0.049787 
0.842422 0.773121 0.051773 
0.773320 0.157894 0.050877 
0.226711 0.841669 0.047005 
0.670201 0.238330 0.052860 
0.330318 0.761423 0.047528 
0.697120 0.356170 0.049068 
0.303101 0.644761 0.051399 
0.939695 0.606732 0.049340 
0.606421 0.059906 0.047882 
0.394108 0.938749 0.055662 
0.059894 0.606456 0.048957 
0.700417 0.433358 0.047493 
0.303840 0.558573 0.053714 
0.054218 0.053469 0.048021 
0.945633 0.054565 0.050790 
0.946545 0.945099 0.050304 
0.055335 0.946722 0.049815 
0.772640 0.946023 0.051289 
0.056156 0.232347 0.052662 
0.226747 0.054441 0.051240 
0.945988 0.771574 0.047019 
0.771356 0.054454 0.049844 
0.228063 0.944428 0.048603 
0.946624 0.227226 0.048592 
0.055855 0.771594 0.052736 
0.220166 0.160272 0.049558 
0.775324 0.847423 0.052490 
0.847608 0.224632 0.049537 
0.156153 0.774846 0.047794 
0.553656 0.948084 0.047308 
[...]
POINT_DATA 1221
SCALARS u float 1
LOOKUP_TABLE default
0.135183
0.054488
0.040730
0.054604
0.132955
0.056886
0.031612
0.054513
0.068380
0.023552
0.071258
0.099755
0.099918
0.072266
0.031679
0.032123
0.079888
0.102357
0.095405
0.059352
0.029321
0.087996
0.132968
0.148696
0.136066
0.111345
0.082482
0.073320
0.036673
0.071550
0.100156
0.096566
0.073770
0.034440
0.035350
0.077090
0.100144
0.093532
0.062725
0.026076
0.086005
0.133580
0.152778
0.139912
0.115569
0.084971
0.128961
0.036236
0.105307
0.062628
0.022152
0.036614
0.064370
0.075625
0.068097
0.040553
0.020736
0.066719
0.107715
0.124055
0.116244
0.087397
0.053422
0.016156
0.018069
0.034402
0.049435
0.107310
0.062787
0.021774
0.034267
0.063195
0.076349
0.067688
0.041341
0.025898
0.069871
0.109344
0.122191
0.116923
0.087827
0.046482
0.013980
0.020469
0.036274
0.047782
0.053246
0.029350
0.019605
0.035120
0.043863
0.036336
0.013655
0.041005
0.080903
0.100687
0.087523
0.047813
0.027006
0.089934
0.128188
0.149013
0.148720
0.124401
0.090366
0.057589
0.022971
0.014402
0.035287
0.043530
0.037510
0.019692
0.041887
0.080215
0.098994
0.086704
0.047573
0.024341
0.082397
0.130673
0.150980
0.148987
0.127823
0.092584
0.063306
0.017338
0.044704
0.077529
0.085169
0.057358
0.023586
0.071515
0.119859
0.124609
0.070903
0.066389
0.162895
0.236482
0.233697
0.160640
0.055397
0.062860
0.113325
0.093958
0.053127
0.049091
0.079928
0.087089
0.052341
0.029441
0.076686
0.123062
0.121073
0.065131
0.065264
0.161335
0.233817
0.234974
0.162943
0.052426
0.071898
0.111005
0.096396
0.051415
0.012750
0.019943
0.015781
0.009739
0.091975
0.027543
0.101133
0.015813
0.039992
0.131632
0.069524
0.024998
0.097102
0.095533
0.109303
0.087766
0.075438
0.242517
0.065614
0.092194
0.204800
0.203635
0.007971
0.082551
0.080523
0.029668
0.044924
0.065386
0.043297
0.044899
0.071532
0.007843
0.003894
0.059248
0.078280
0.013438
0.038274
0.052446
0.086807
0.056223
0.010673
0.013885
0.030563
0.022689
0.054611
0.025311
0.016889
0.020983
0.017711
0.007551
0.009421
0.070403
0.013436
0.017234
0.019807
0.024550
0.029266
0.022422
0.028118
0.016945
0.017108
0.026832
0.019760
0.006707
0.054742
0.067175
0.075411
0.021113
0.029843
0.081612
0.051802
0.010422
0.004061
0.025614
0.035552
0.057044
0.007963
0.013341
0.023343
0.043044
0.079506
0.004208
0.082239
0.042543
0.074446
0.060015
0.076333
0.025304
0.023555
0.041782
0.055343
0.043764
0.014451
0.080708
0.028185
0.051516
0.007232
0.065695
0.027845
0.030550
0.009897
0.038722
0.089315
0.053170
0.070061
0.016548
0.008179
0.114758
0.028186
0.017514
0.025713
0.038748
0.036002
0.126059
0.012171
0.036831
0.005085
0.070569
0.053032
0.015026
0.073058
0.012713
0.044569
0.030148
0.045303
0.027213
0.013302
0.027105
0.057085
0.074289
0.030590
0.045035
0.011383
0.006881
0.043649
0.059279
0.018590
0.022972
0.028959
0.021564
0.048053
0.016705
0.008681
0.033523
0.041862
0.032719
0.058555
0.062368
0.021553
0.038374
0.025410
0.019900
0.015960
0.026828
0.031969
0.012820
0.049352
0.024177
0.081007
0.077309
0.067776
0.028421
0.039823
0.018783
0.058466
0.154624
0.030607
0.067596
0.099948
0.056231
0.024593
0.023325
0.031091
0.034808
0.072908
0.033900
0.083189
0.013276
0.046424
0.038164
0.077447
0.013153
0.067032
0.013025
0.061022
0.073892
0.065504
0.009797
0.051898
0.016715
0.030530
0.046708
0.025303
0.040992
0.013985
0.021625
0.010040
0.007314
0.023154
0.060672
0.065560
0.068753
0.050376
0.082917
0.040582
0.018736
0.021845
0.068078
0.017413
0.053919
0.058173
0.089851
0.043375
0.039412
0.086322
0.047022
0.038855
0.011247
0.069900
0.097706
0.015438
0.017592
0.064923
0.089425
0.036631
0.083261
0.065635
0.081428
0.027154
0.035567
0.052587
0.079006
0.037991
0.051797
0.083986
0.005728
0.004741
0.026606
0.072891
0.041933
0.088906
0.016463
0.070130
0.025890
0.080175
0.012806
0.087170
0.050020
0.037629
0.077166
0.009432
0.013159
0.008682
0.030984
0.019006
0.024260
0.046759
0.074690
0.038345
0.057075
0.077383
0.043311
0.024050
0.057851
0.019916
0.020277
0.126983
0.025382
0.069717
0.064306
0.023385
0.010563
0.084894
0.024243
0.019329
0.010200
0.024542
0.009895
0.055809
0.082554
0.020984
0.027264
0.017273
0.035320
0.063756
0.053514
0.024034
0.065072
0.016409
0.033131
0.026214
0.015037
0.094954
0.018879
0.120168
0.011637
0.052775
0.032745
0.017741
0.011340
0.034364
0.020892
0.055322
0.011937
0.027490
0.009822
0.065834
0.073240
0.011025
0.049844
0.075626
0.013132
0.037406
0.067239
0.092720
0.011099
0.100097
0.100210
0.010658
0.031627
0.010793
0.039537
0.037363
0.008587
0.009759
0.008141
0.028098
0.017616
0.013383
0.027454
0.013599
0.043621
0.019635
0.027330
0.034988
0.028777
0.047193
0.034415
0.035134
0.168147
0.081619
0.074264
0.033541
0.043109
0.018000
0.008782
0.057064
0.022790
0.053894
0.026567
0.015074
0.079309
0.034488
0.048309
0.114614
0.034521
0.027896
0.061356
0.021226
0.003775
0.042700
0.025603
0.020182
0.008930
0.050663
0.026827
0.017168
0.038763
0.044025
0.038731
0.035482
0.089530
0.027089
0.041576
0.020642
0.012089
0.068696
0.040241
0.091261
0.020318
0.011879
0.029804
0.063032
0.065586
0.072476
0.034520
0.024984
0.077974
0.031793
0.013589
0.020787
0.019601
0.049128
0.067934
0.021303
0.047213
0.010561
0.049725
0.025515
0.036959
0.050483
0.062363
0.027952
0.011490
0.046119
0.014252
0.016493
0.011456
0.034642
0.066417
0.006803
0.080575
0.066675
0.060958
0.064055
0.057593
0.021903
0.026489
0.093288
0.036320
0.003435
0.030366
0.027655
0.013342
0.049572
0.061086
0.026778
0.070173
0.065296
0.091872
0.043421
0.063879
0.010967
0.068271
0.036342
0.011406
0.057613
0.065445
0.084217
0.077715
0.086926
0.057555
0.021327
0.016387
0.044868
0.005606
0.034155
0.042815
0.008407
0.007084
0.084910
0.033288
0.042355
0.087626
0.059988
0.079430
0.012243
0.051869
0.040732
0.064925
0.047762
0.023179
0.010737
0.065859
0.006772
0.043203
0.020989
0.056344
0.023182
0.024588
0.024070
0.042328
0.055636
0.085978
0.015749
0.195580
0.088826
0.039135
0.026594
0.040179
0.063188
0.057737
0.097194
0.048097
0.040298
0.014175
0.013311
0.004386
0.006494
0.011062
0.098102
0.014049
0.035561
0.007609
0.008083
0.012623
0.083778
0.056080
0.073021
0.007466
0.010723
0.043296
0.015430
0.043602
0.044235
0.008798
0.046230
0.035161
0.031045
0.039008
0.043080
0.073985
0.028293
0.150158
0.137294
0.104416
0.068302
0.043748
0.041377
0.025038
0.004283
0.014459
0.096927
0.092925
0.060903
0.014883
0.048079
0.141370
0.111459
0.050900
0.052255
0.119289
0.120836
0.081881
0.072314
0.028719
0.009443
0.043083
0.024657
0.011376
0.037420
0.048995
0.081372
0.054712
0.035595
0.074923
0.013914
0.120770
0.101836
0.064918
0.117449
0.007034
0.082546
0.080610
0.032014
0.051707
0.063601
0.042085
0.046169
0.073711
0.003357
0.006075
0.059639
0.074911
0.015029
0.040125
0.053352
0.086388
0.063458
0.009045
0.016212
0.031108
0.025768
0.054201
0.024688
0.015127
0.019952
0.007010
0.017924
0.005502
0.065652
0.024039
0.013101
0.013654
0.024237
0.026317
0.023030
0.027336
0.016869
0.017282
0.029702
0.018780
0.007666
0.050864
0.062549
0.071509
0.019510
0.028615
0.081900
0.054530
0.009194
0.005912
0.030142
0.040790
0.062789
0.004760
0.021205
0.019862
0.043244
0.077336
0.003983
0.079039
0.042171
0.075219
0.060092
0.073714
0.025716
0.023364
0.042479
0.055605
0.047934
0.078806
0.014113
0.025984
0.049670
0.007858
0.065710
0.027560
0.031236
0.012837
0.045213
0.087359
0.053249
0.019333
0.070057
0.004964
0.109521
0.026118
0.018112
0.024084
0.037585
0.034588
0.123917
0.003693
0.031102
0.006437
0.071410
0.054052
0.014647
0.072229
0.009024
0.049588
0.031283
0.044539
0.027478
0.028511
0.017647
0.058240
0.078090
0.028347
0.045309
0.013738
0.006032
0.045907
0.062623
0.018085
0.022412
0.029361
0.022138
0.048500
0.015907
0.008924
0.038856
0.039439
0.037914
0.055895
0.057974
0.021123
0.044782
0.022839
0.017729
0.018245
0.024815
0.032256
0.008736
0.050237
0.024884
0.083109
0.075481
0.062341
0.035394
0.043290
0.019792
0.057280
0.154793
0.030021
0.065818
0.099360
0.057301
0.021469
0.026794
0.036569
0.034564
0.070570
0.033905
0.087600
0.010950
0.049261
0.038079
0.080215
0.014455
0.070563
0.012176
0.058051
0.068726
0.062194
0.017090
0.048011
0.016418
0.031397
0.045849
0.027480
0.050039
0.012525
0.021173
0.009801
0.005188
0.040694
0.085978
0.065497
0.069185
0.023817
0.043906
0.038746
0.017008
0.020286
0.068259
0.018075
0.054979
0.062214
0.087879
0.019509
0.039278
0.044814
0.039654
0.015893
0.057687
0.086786
0.092602
0.013498
0.017086
0.064734
0.089884
0.035027
0.079748
0.066119
0.081613
0.035645
0.034956
0.052537
0.079396
0.039241
0.052162
0.082463
0.004857
0.007655
0.026898
0.072865
0.035301
0.083320
0.045266
0.070394
0.026320
0.081468
0.013874
0.089286
0.051876
0.045586
0.082291
0.008578
0.015229
0.009753
0.031513
0.016676
0.023302
0.039726
0.057620
0.076535
0.041224
0.021753
0.064714
0.017571
0.019494
0.127327
0.023921
0.071599
0.061702
0.024250
0.013359
0.081853
0.023027
0.016281
0.024009
0.019592
0.007294
0.054739
0.081966
0.021448
0.026984
0.018312
0.036417
0.062082
0.053931
0.025889
0.084752
0.064967
0.015863
0.032069
0.025739
0.014967
0.017339
0.064351
0.097745
0.121795
0.010335
0.049857
0.030643
0.018259
0.011041
0.034315
0.020738
0.055497
0.012011
0.030646
0.011215
0.073785
0.065809
0.015874
0.055814
0.074333
0.012491
0.036928
0.072134
0.096504
0.010407
0.102879
0.097364
0.013422
0.005527
0.058815
0.068229
0.034857
0.038037
0.068256
0.009190
0.008311
0.007080
0.032271
0.027688
0.064882
0.016297
0.011668
0.028117
0.013459
0.045710
0.021787
0.034991
0.027780
0.029521
0.033719
0.033871
0.166193
0.076721
0.075118
0.032573
0.019474
0.046230
0.006941
0.058389
0.022473
0.053650
0.025947
0.019161
0.074274
0.027797
0.028299
0.109650
0.034627
0.029647
0.059443
0.021625
0.004834
0.045581
0.025283
0.023832
0.009172
0.051869
0.029394
0.013998
0.037325
0.040944
0.032566
0.027646
0.041646
0.018732
0.015041
0.066938
0.038933
0.096070
0.018114
0.010135
0.069691
0.035953
0.025428
0.074519
0.014610
0.030548
0.020005
0.020784
0.017306
0.048409
0.022551
0.028956
0.050167
0.006504
0.053980
0.026164
0.044051
0.058437
0.067835
0.022538
0.027624
0.047419
0.013583
0.066973
0.015338
0.017413
0.067077
0.038379
0.066676
0.009600
0.054566
0.067091
0.057446
0.080435
0.052345
0.088212
0.032670
0.010845
0.073239
0.027870
0.013730
0.034498
0.049317
0.071498
0.026597
0.093349
0.041823
0.064601
0.012690
0.071794
0.040388
0.046020
0.007686
0.054702
0.069824
0.082041
0.083753
0.085005
0.050668
0.021438
0.041938
0.015146
0.050787
0.003219
0.035683
0.006414
0.002147
0.085635
0.034375
0.042189
0.089770
0.030139
0.054290
0.007297
0.052674
0.041618
0.063388
0.046752
0.024594
0.008910
0.006600
0.009487
0.036800
0.020024
0.052941
0.026212
0.024039
0.023558
0.040964
0.051232
0.084394
0.020695
0.199461
0.093145
0.036498
0.034445
0.043943
0.064318
0.059930
0.045636
0.040156
0.016629
0.018546
0.074444
0.095473
0.005025
0.005587
0.011072
0.101718
0.011428
0.033048
0.007385
0.010980
0.014488
0.085014
0.054248
0.068985
0.006915
0.006818
0.041151
0.045301
0.040595
0.012064
0.042214
0.055425
0.053613
0.100419
0.105804
0.101433
0.087725
0.143618
0.145648
0.122182
0.092016
0.102958
0.089113
0.040898
0.023470
0.051713
0.091485
0.005160
0.058912
0.027182
0.076732
0.112964
0.053366
