# vtk DataFile Version 2.0
Unstructured Grid Example
ASCII
DATASET UNSTRUCTURED_GRID
POINTS 1221 float
0.000047 -0.000376 0.001952 
1.000085 0.000326 -0.001432 
0.999952 1.000429 0.002203 
-0.000185 0.999543 -0.001265 
-0.000095 0.000432 0.051952 
0.999866 -0.000413 0.048570 
1.000035 0.999566 0.052202 
0.000206 1.000461 0.048734 
-0.000091 0.050434 0.051116 
-0.000110 0.100444 0.050243 
-0.000112 0.150405 0.049378 
-0.000116 0.200291 0.048680 
-0.000112 0.250138 0.048218 
-0.000104 0.300054 0.048017 
-0.000110 0.349958 0.047968 
-0.000090 0.399794 0.048203 
-0.000028 0.449659 0.048844 
-0.000009 0.499628 0.049691 
0.000053 0.549613 0.050636 
0.000083 0.599629 0.051562 
0.000178 0.649752 0.052381 
0.000201 0.699973 0.052790 
0.000210 0.750183 0.052734 
0.000201 0.800300 0.052227 
0.000206 0.850378 0.051506 
0.000205 0.900434 0.050609 
0.000204 0.950462 0.049672 
0.000068 0.049626 0.001116 
0.000088 0.099602 0.000234 
0.000115 0.149632 -0.000616 
0.000123 0.199717 -0.001334 
0.000105 0.249895 -0.001777 
0.000100 0.299928 -0.001985 
0.000079 0.349998 -0.002038 
0.000051 0.400158 -0.001782 
-0.000005 0.450260 -0.001151 
-0.000025 0.500351 -0.000308 
-0.000089 0.550340 0.000633 
-0.000131 0.600324 0.001550 
-0.000214 0.650233 0.002365 
-0.000240 0.700061 0.002784 
-0.000272 0.749854 0.002701 
-0.000234 0.799730 0.002255 
-0.000213 0.849617 0.001503 
-0.000206 0.899551 0.000616 
-0.000195 0.949543 -0.000327 
-0.000025 0.000027 0.026947 
0.000010 1.000002 0.023738 
0.049904 0.000409 0.052065 
0.099929 0.000357 0.052130 
0.149958 0.000319 0.052150 
0.199996 0.000254 0.052121 
0.250021 0.000261 0.052084 
0.300090 0.000258 0.051961 
0.350130 0.000192 0.051685 
0.400224 0.000173 0.051235 
0.450251 0.000139 0.050694 
0.500244 0.000093 0.050080 
0.550211 0.000006 0.049492 
0.600161 -0.000047 0.049005 
0.650130 -0.000137 0.048538 
0.700062 -0.000195 0.048178 
0.750000 -0.000276 0.047996 
0.799928 -0.000306 0.047949 
0.849895 -0.000334 0.048026 
0.899880 -0.000351 0.048188 
0.949866 -0.000392 0.048364 
0.050043 -0.000380 0.002064 
0.100026 -0.000355 0.002131 
0.150005 -0.000286 0.002178 
0.200004 -0.000255 0.002120 
0.250001 -0.000245 0.002082 
0.299932 -0.000224 0.001974 
0.349859 -0.000190 0.001671 
0.399787 -0.000136 0.001246 
0.449760 -0.000086 0.000688 
0.499758 -0.000025 0.000089 
0.549800 0.000026 -0.000511 
0.599842 0.000071 -0.000991 
0.649856 0.000179 -0.001443 
0.699887 0.000233 -0.001824 
0.749956 0.000301 -0.002029 
0.800011 0.000316 -0.002047 
0.850059 0.000319 -0.001970 
0.900072 0.000323 -0.001814 
0.950082 0.000334 -0.001632 
0.999976 -0.000043 0.023573 
0.999871 0.049594 0.049323 
0.999874 0.099609 0.050101 
0.999864 0.149664 0.050813 
0.999864 0.199707 0.051472 
0.999840 0.249776 0.051996 
0.999872 0.299954 0.052226 
0.999887 0.350128 0.052094 
0.999916 0.400331 0.051539 
0.999989 0.450440 0.050642 
1.000057 0.500457 0.049575 
1.000092 0.550387 0.048570 
1.000162 0.600257 0.047786 
1.000199 0.650070 0.047367 
1.000155 0.699835 0.047438 
1.000135 0.749694 0.047877 
1.000130 0.799661 0.048583 
1.000108 0.849613 0.049473 
1.000064 0.899581 0.050392 
1.000052 0.949573 0.051316 
1.000101 0.050324 -0.000670 
1.000117 0.100332 0.000103 
1.000145 0.150273 0.000833 
1.000153 0.200260 0.001469 
1.000167 0.250202 0.002002 
1.000155 0.300017 0.002233 
1.000144 0.349901 0.002081 
1.000104 0.399682 0.001557 
1.000049 0.449577 0.000626 
0.999986 0.499569 -0.000421 
0.999955 0.549655 -0.001429 
0.999865 0.599765 -0.002214 
0.999846 0.649938 -0.002622 
0.999864 0.700122 -0.002593 
0.999885 0.750271 -0.002120 
0.999912 0.800371 -0.001393 
0.999938 0.850435 -0.000543 
0.999948 0.900432 0.000396 
0.999954 0.950440 0.001309 
0.999993 0.999998 0.027197 
0.950042 0.999571 0.052256 
0.900028 0.999621 0.052265 
0.850006 0.999647 0.052276 
0.799996 0.999676 0.052228 
0.749966 0.999696 0.052131 
0.699920 0.999753 0.051940 
0.649886 0.999783 0.051580 
0.599767 0.999913 0.051085 
0.549738 0.999928 0.050418 
0.499752 1.000029 0.049712 
0.449786 1.000083 0.049095 
0.399776 1.000165 0.048522 
0.349833 1.000217 0.047977 
0.299965 1.000242 0.047634 
0.250051 1.000310 0.047482 
0.200117 1.000346 0.047540 
0.150165 1.000362 0.047720 
0.100195 1.000405 0.048033 
0.050205 1.000450 0.048365 
0.949955 1.000406 0.002246 
0.899976 1.000389 0.002265 
0.849977 1.000341 0.002278 
0.800008 1.000321 0.002214 
0.750040 1.000300 0.002131 
0.700092 1.000264 0.001962 
0.650146 1.000245 0.001591 
0.600191 1.000096 0.001073 
0.550249 1.000025 0.000411 
0.500231 0.999918 -0.000274 
0.450141 0.999870 -0.000894 
0.400162 0.999776 -0.001487 
0.350143 0.999734 -0.002030 
0.300078 0.999681 -0.002373 
0.249984 0.999623 -0.002517 
0.199913 0.999598 -0.002485 
0.149870 0.999611 -0.002272 
0.099838 0.999571 -0.001973 
0.049819 0.999551 -0.001632 
0.024268 0.999890 0.017442 
0.019885 1.000191 0.034003 
0.975677 1.000096 0.021118 
0.980222 0.999815 0.037641 
0.481655 0.999966 0.024481 
0.775001 0.999999 0.027184 
0.674981 1.000005 0.026786 
0.525738 0.999971 0.025094 
0.725000 1.000008 0.027074 
0.624968 1.000051 0.026351 
0.075013 0.999995 0.023185 
0.225006 0.999977 0.022469 
0.575073 0.999977 0.025726 
0.175024 0.999970 0.022612 
0.125016 0.999980 0.022867 
0.875005 1.000010 0.027270 
0.824990 0.999999 0.027256 
0.374997 0.999962 0.023244 
0.918339 1.000004 0.027270 
0.275009 0.999973 0.022509 
0.325007 0.999966 0.022771 
0.424979 0.999981 0.023795 
0.499960 0.499992 0.050129 
0.292265 0.295086 0.049305 
0.707788 0.705073 0.049617 
0.709021 0.290697 0.050606 
0.290996 0.709254 0.050544 
0.501345 0.781403 0.050182 
0.784554 0.498177 0.049964 
0.499493 0.223254 0.049979 
0.224215 0.502597 0.049469 
0.168139 0.170907 0.049877 
0.830907 0.169455 0.050193 
0.830397 0.830701 0.049716 
0.169155 0.830593 0.050275 
0.563680 0.640636 0.050256 
0.436278 0.359391 0.049760 
0.642420 0.437660 0.050461 
0.353344 0.566970 0.049977 
0.639830 0.846671 0.050467 
0.360782 0.153882 0.050407 
0.151227 0.360497 0.048518 
0.846696 0.360297 0.051366 
0.846484 0.641366 0.048567 
0.641547 0.153530 0.049585 
0.358443 0.846562 0.049507 
0.153892 0.634706 0.051153 
0.678408 0.581501 0.049961 
0.560620 0.330809 0.050206 
0.439287 0.669167 0.050248 
0.321659 0.420373 0.049392 
0.533652 0.881966 0.050205 
0.465343 0.117866 0.050087 
0.882336 0.465979 0.050274 
0.119884 0.465360 0.049090 
0.744327 0.896296 0.050829 
0.107848 0.258318 0.048685 
0.258607 0.098030 0.050997 
0.896466 0.255504 0.051380 
0.889789 0.736890 0.048355 
0.736946 0.110199 0.049189 
0.263050 0.889869 0.048955 
0.110424 0.738613 0.051782 
0.601086 0.740001 0.050152 
0.398959 0.260064 0.049796 
0.745226 0.404719 0.050794 
0.251752 0.597657 0.050334 
0.598381 0.520928 0.050293 
0.397968 0.474958 0.049795 
0.611721 0.253908 0.050126 
0.388082 0.745870 0.050176 
0.097496 0.095102 0.050707 
0.902285 0.094498 0.049546 
0.905273 0.902082 0.050676 
0.098736 0.905782 0.049672 
0.436760 0.903160 0.049515 
0.903206 0.563382 0.048706 
0.563278 0.096914 0.049498 
0.096970 0.562843 0.050550 
0.258626 0.202504 0.049885 
0.741958 0.797152 0.049727 
0.797135 0.257998 0.050809 
0.209091 0.745556 0.050936 
0.196140 0.279122 0.048999 
0.798339 0.716091 0.048996 
0.714596 0.206491 0.050037 
0.285368 0.793589 0.050075 
0.502017 0.411923 0.050035 
0.497219 0.588333 0.050224 
0.240755 0.365420 0.048938 
0.759294 0.634429 0.049295 
0.689625 0.500797 0.050206 
0.645899 0.345296 0.050527 
0.308729 0.504832 0.049619 
0.354048 0.654608 0.050273 
0.080144 0.183619 0.049266 
0.176994 0.084589 0.051107 
0.817625 0.918851 0.051106 
0.919021 0.182137 0.050790 
0.917288 0.820676 0.049285 
0.820875 0.082504 0.049054 
0.081032 0.817893 0.051280 
0.185461 0.914545 0.048880 
0.651982 0.655451 0.049951 
0.348017 0.344586 0.049409 
0.514031 0.696557 0.050266 
0.485906 0.303478 0.049952 
0.610083 0.917146 0.050740 
0.389620 0.083177 0.050762 
0.078316 0.394500 0.048335 
0.917041 0.390061 0.051382 
0.925114 0.660448 0.047868 
0.660513 0.074888 0.049008 
0.339722 0.925222 0.048678 
0.074607 0.661379 0.051893 
0.431112 0.821883 0.049907 
0.821123 0.566027 0.049142 
0.568610 0.177839 0.049810 
0.179628 0.566626 0.050282 
0.190336 0.431462 0.048883 
0.573679 0.818310 0.050310 
0.426710 0.179096 0.050146 
0.821643 0.427158 0.050735 
0.565415 0.457574 0.050264 
0.435283 0.542081 0.050064 
0.774216 0.331227 0.051062 
0.225575 0.668160 0.050889 
0.667671 0.781160 0.050004 
0.333264 0.218549 0.049936 
0.677258 0.930162 0.051134 
0.068447 0.317952 0.048279 
0.322703 0.069912 0.051209 
0.930212 0.322660 0.051851 
0.745857 0.559635 0.049645 
0.447829 0.736428 0.050205 
0.551943 0.263292 0.050055 
0.614187 0.594871 0.050179 
0.385933 0.405909 0.049609 
0.258497 0.443226 0.049190 
0.585380 0.392906 0.050328 
0.414536 0.607091 0.050161 
0.450584 0.428039 0.049876 
0.548603 0.572198 0.050264 
0.484686 0.934775 0.049742 
0.934759 0.515546 0.049381 
0.515407 0.065332 0.049839 
0.065363 0.514908 0.049854 
0.500077 0.838438 0.050079 
0.838019 0.507564 0.049694 
0.500386 0.152212 0.049918 
0.153532 0.500953 0.049489 
0.696735 0.842651 0.050326 
0.303866 0.156964 0.050429 
0.842268 0.302725 0.051354 
0.149464 0.702137 0.051491 
0.159488 0.231330 0.049164 
0.842103 0.773008 0.048951 
0.773114 0.157866 0.049802 
0.226897 0.842205 0.049724 
0.669925 0.238085 0.050194 
0.329996 0.761907 0.050216 
0.696834 0.355714 0.050716 
0.303169 0.644224 0.050376 
0.939759 0.606712 0.048015 
0.606629 0.060353 0.049137 
0.393643 0.939823 0.048934 
0.060381 0.606325 0.051387 
0.700254 0.433373 0.050569 
0.303896 0.558483 0.049921 
0.054329 0.054512 0.051232 
0.945461 0.053732 0.049137 
0.945941 0.945161 0.051344 
0.054722 0.946348 0.049308 
0.772754 0.945694 0.051497 
0.055550 0.232384 0.048601 
0.226849 0.054493 0.051505 
0.945300 0.771351 0.048405 
0.771599 0.054563 0.048592 
0.229034 0.945188 0.048241 
0.946397 0.226807 0.051447 
0.055167 0.771837 0.052114 
0.219934 0.160361 0.050210 
0.775353 0.847168 0.050131 
0.847412 0.224517 0.050814 
0.155793 0.774983 0.051082 
0.553080 0.947736 0.050369 
[...]
POINT_DATA 1221
SCALARS u float 1
LOOKUP_TABLE default
0.105048
0.077723
0.118617
0.071741
0.105778
0.078965
0.118597
0.072033
0.063433
0.027372
0.039666
0.071689
0.094612
0.104955
0.107534
0.095708
0.063708
0.025538
0.039469
0.084938
0.126846
0.147816
0.145224
0.119193
0.082766
0.040984
0.031798
0.062293
0.024851
0.038383
0.072374
0.094223
0.105083
0.107790
0.094575
0.062359
0.024718
0.038250
0.083941
0.126077
0.147686
0.143657
0.120657
0.082744
0.041731
0.031455
0.102885
0.066700
0.111360
0.114160
0.114864
0.112897
0.110981
0.104606
0.089882
0.066922
0.039679
0.014445
0.029053
0.053341
0.077916
0.096893
0.106875
0.109660
0.105917
0.097703
0.089168
0.110923
0.114141
0.116077
0.112827
0.110783
0.105028
0.089161
0.067178
0.038748
0.013671
0.029009
0.053156
0.077217
0.097366
0.108402
0.109459
0.105478
0.097441
0.088115
0.075468
0.042243
0.022359
0.047043
0.079641
0.106475
0.117837
0.111011
0.083323
0.041137
0.033119
0.078437
0.118088
0.139550
0.135904
0.113573
0.077295
0.035038
0.030499
0.073139
0.039681
0.019398
0.046975
0.079256
0.106680
0.118260
0.110339
0.084142
0.040002
0.031845
0.077729
0.117861
0.138798
0.137342
0.113105
0.076311
0.036890
0.031102
0.073028
0.116079
0.121381
0.121342
0.121681
0.118966
0.113760
0.103444
0.084486
0.058821
0.026345
0.020148
0.049325
0.079468
0.107865
0.125689
0.134111
0.131414
0.122298
0.106625
0.090269
0.120600
0.121429
0.121733
0.118199
0.113746
0.104697
0.085419
0.057828
0.025418
0.019416
0.048334
0.079902
0.108458
0.126588
0.134467
0.133096
0.121965
0.107020
0.089969
0.076683
0.075542
0.117896
0.117953
0.027495
0.115418
0.094401
0.005173
0.109582
0.071477
0.095927
0.133751
0.038393
0.126190
0.112712
0.119944
0.119200
0.092794
0.119954
0.131618
0.117816
0.063697
0.007157
0.037519
0.021254
0.032266
0.029017
0.009691
0.010730
0.001206
0.029239
0.014824
0.016366
0.021919
0.021953
0.013686
0.013342
0.024521
0.004052
0.025491
0.022625
0.078492
0.072497
0.076310
0.022361
0.027595
0.061731
0.007334
0.011373
0.013204
0.032511
0.012520
0.007483
0.022822
0.049956
0.046252
0.069756
0.054016
0.073804
0.087646
0.043995
0.056757
0.094691
0.009524
0.012074
0.042227
0.019891
0.015494
0.011475
0.007535
0.009356
0.041129
0.029265
0.039622
0.027104
0.026316
0.069684
0.027273
0.033596
0.012123
0.016853
0.043841
0.049801
0.053605
0.053586
0.007269
0.011539
0.003590
0.011932
0.056301
0.038020
0.012088
0.028037
0.020644
0.014623
0.041769
0.060680
0.060655
0.044709
0.041412
0.052584
0.070195
0.062188
0.005318
0.031489
0.014090
0.004315
0.039649
0.041303
0.088297
0.073511
0.112951
0.053015
0.070778
0.100448
0.008533
0.046498
0.010821
0.021605
0.059223
0.016442
0.009818
0.040859
0.014259
0.004247
0.056238
0.047500
0.006018
0.009271
0.060773
0.091132
0.065191
0.098031
0.020617
0.010931
0.003705
0.010080
0.020844
0.043161
0.017626
0.008610
0.006989
0.013989
0.015215
0.037168
0.013126
0.018406
0.007981
0.022107
0.005192
0.030371
0.020993
0.024207
0.071854
0.079043
0.044982
0.056797
0.014580
0.020137
0.011677
0.012779
0.038003
0.020397
0.105655
0.046005
0.057369
0.075010
0.030314
0.008380
0.068648
0.050125
0.074432
0.044323
0.080605
0.074250
0.080536
0.085851
0.075762
0.094393
0.078194
0.112697
0.015551
0.018554
0.044260
0.059425
0.020696
0.037334
0.027951
0.066673
0.072911
0.079711
0.026042
0.032946
0.012612
0.004764
0.004172
0.014452
0.072498
0.008281
0.018812
0.043606
0.020191
0.006500
0.026017
0.020637
0.080389
0.024658
0.079609
0.067627
0.021341
0.046240
0.076290
0.018417
0.022252
0.011444
0.039587
0.016733
0.013016
0.024386
0.025339
0.020779
0.056231
0.034955
0.032240
0.028460
0.032330
0.052290
0.039060
0.013427
0.007406
0.058095
0.115209
0.072239
0.123187
0.093762
0.030459
0.024265
0.018272
0.027098
0.007309
0.008109
0.012383
0.010527
0.020008
0.030064
0.022891
0.029985
0.022254
0.017461
0.040553
0.090667
0.035518
0.069006
0.054910
0.012797
0.002311
0.032636
0.009387
0.065903
0.058576
0.008811
0.012311
0.035052
0.038991
0.042839
0.084921
0.041077
0.077475
0.030290
0.039262
0.044180
0.027734
0.034192
0.008018
0.031816
0.011282
0.022728
0.087380
0.006472
0.003515
0.008182
0.007812
0.066734
0.078848
0.091921
0.081262
0.100036
0.029903
0.035861
0.052695
0.011763
0.009718
0.017073
0.053291
0.061038
0.097869
0.067771
0.095435
0.044331
0.009053
0.019888
0.015806
0.035219
0.019286
0.031589
0.044494
0.014688
0.019899
0.043974
0.043178
0.050128
0.090447
0.054408
0.092619
0.050361
0.083673
0.088061
0.094400
0.012484
0.010508
0.083281
0.007083
0.033466
0.011291
0.002184
0.018862
0.011360
0.025758
0.054753
0.007593
0.014208
0.011563
0.013476
0.003972
0.000845
0.008080
0.022108
0.004629
0.028666
0.096947
0.128317
0.073009
0.120373
0.012474
0.005978
0.094583
0.047630
0.036373
0.046906
0.056513
0.081536
0.014311
0.002627
0.020166
0.040156
0.087250
0.046971
0.066107
0.010299
0.049899
0.014934
0.017408
0.020549
0.067454
0.021499
0.043079
0.079490
0.057677
0.048199
0.031307
0.017826
0.010668
0.011905
0.008419
0.067394
0.044380
0.056481
0.045106
0.036868
0.036639
0.076836
0.025261
0.008101
0.040149
0.019019
0.014938
0.008695
0.036289
0.065815
0.063010
0.101058
0.046284
0.061895
0.012107
0.038209
0.083199
0.024423
0.087342
0.066770
0.042373
0.024840
0.068567
0.070836
0.013049
0.008230
0.024777
0.032342
0.021416
0.019436
0.004656
0.099489
0.035429
0.012041
0.008421
0.004465
0.018978
0.005334
0.027810
0.024562
0.046714
0.014332
0.009775
0.014272
0.013730
0.005098
0.022357
0.006066
0.013979
0.032011
0.079125
0.100058
0.083268
0.108512
0.020711
0.058155
0.015186
0.047198
0.014700
0.016598
0.025118
0.005920
0.008068
0.036288
0.056164
0.059419
0.028833
0.012169
0.008977
0.013482
0.013643
0.043181
0.015799
0.033187
0.021158
0.039947
0.014385
0.063600
0.065882
0.016840
0.020519
0.009054
0.012449
0.022620
0.020195
0.028947
0.021457
0.064850
0.069898
0.046169
0.050142
0.086559
0.041142
0.124900
0.062157
0.104626
0.083816
0.085838
0.063777
0.095609
0.057416
0.000889
0.008706
0.009540
0.010649
0.036643
0.042787
0.033150
0.013859
0.005493
0.083777
0.048741
0.087337
0.052025
0.052695
0.041728
0.017822
0.054099
0.022245
0.023734
0.014076
0.006497
0.082286
0.008703
0.008786
0.019155
0.011977
0.043297
0.093824
0.098356
0.056273
0.060811
0.042350
0.115960
0.094260
0.052038
0.003671
0.045581
0.092707
0.061322
0.025159
0.010023
0.117594
0.007019
0.059136
0.099831
0.098659
0.130741
0.126517
0.141428
0.080915
0.080597
0.106278
0.106126
0.007454
0.108275
0.100389
0.107703
0.091439
0.109209
0.113410
0.114093
0.111303
0.112304
0.077893
0.021944
0.097546
0.050821
0.063802
0.087142
0.102885
0.041270
0.007291
0.037462
0.020672
0.033442
0.030864
0.009067
0.009874
0.002165
0.027684
0.017298
0.017674
0.020823
0.024775
0.012866
0.013588
0.026098
0.003553
0.026079
0.022543
0.077450
0.073419
0.074727
0.022714
0.027577
0.061561
0.005514
0.033130
0.011504
0.013454
0.012121
0.008461
0.021683
0.050045
0.047899
0.070790
0.054447
0.073050
0.088292
0.043566
0.058677
0.095086
0.009839
0.010880
0.042987
0.019812
0.015820
0.011441
0.009464
0.010228
0.040268
0.029042
0.040614
0.028900
0.027868
0.068263
0.027638
0.034020
0.011901
0.016418
0.044816
0.049330
0.052900
0.053402
0.009939
0.013625
0.004399
0.012262
0.056881
0.037492
0.013177
0.021208
0.027306
0.014028
0.041513
0.059562
0.061401
0.044435
0.041028
0.052715
0.070851
0.062642
0.005200
0.014091
0.030791
0.004618
0.038808
0.039796
0.086797
0.074131
0.113599
0.054083
0.070569
0.102844
0.009125
0.046276
0.011981
0.023885
0.058858
0.015746
0.008957
0.041738
0.014329
0.004239
0.006626
0.053992
0.048086
0.008553
0.060767
0.092059
0.065334
0.098233
0.019014
0.011172
0.004777
0.009359
0.020825
0.042400
0.018097
0.009018
0.007127
0.014435
0.016470
0.038871
0.013303
0.017488
0.006944
0.022187
0.005009
0.029831
0.019426
0.024167
0.070830
0.079862
0.044690
0.057118
0.014688
0.022790
0.012697
0.012661
0.041002
0.023224
0.103877
0.046199
0.059584
0.075330
0.020591
0.015078
0.067523
0.047927
0.073382
0.044003
0.080913
0.074951
0.080539
0.084691
0.075376
0.096278
0.077950
0.109007
0.015244
0.015576
0.045017
0.060355
0.019820
0.035434
0.027439
0.066287
0.073400
0.080332
0.026593
0.035459
0.006580
0.005289
0.004199
0.015107
0.070977
0.012488
0.027847
0.043786
0.019567
0.007975
0.012889
0.019102
0.079377
0.023185
0.079595
0.066854
0.020672
0.047212
0.075676
0.010924
0.022166
0.039124
0.017814
0.013004
0.033618
0.007651
0.024698
0.020013
0.054353
0.034400
0.032802
0.028295
0.031957
0.051939
0.038440
0.005359
0.014320
0.057016
0.116338
0.072990
0.125398
0.094936
0.030843
0.023633
0.016408
0.028150
0.008631
0.010109
0.019059
0.010435
0.019481
0.030696
0.023674
0.029156
0.023113
0.019378
0.041788
0.088951
0.035688
0.068831
0.054159
0.013194
0.002731
0.066312
0.058349
0.010232
0.012913
0.035181
0.039223
0.041369
0.085888
0.040894
0.078752
0.030827
0.039585
0.042139
0.026790
0.033478
0.009140
0.033284
0.011680
0.021303
0.088536
0.006932
0.005425
0.008374
0.007986
0.066520
0.080411
0.092839
0.081491
0.100078
0.012473
0.029082
0.035167
0.052361
0.012065
0.010080
0.053316
0.025613
0.009503
0.062900
0.098878
0.065389
0.096474
0.044828
0.005939
0.018939
0.016424
0.035380
0.018839
0.033640
0.043925
0.020304
0.013859
0.044430
0.044841
0.049393
0.090873
0.053817
0.093656
0.049725
0.083187
0.088286
0.094347
0.083055
0.012886
0.020308
0.036349
0.006369
0.032845
0.031341
0.011722
0.002972
0.019337
0.026589
0.011835
0.008247
0.025837
0.053894
0.007790
0.014746
0.011876
0.013604
0.002409
0.005295
0.007873
0.003340
0.028863
0.097193
0.127938
0.073783
0.124199
0.004852
0.013022
0.092992
0.048472
0.036455
0.046998
0.055941
0.080606
0.013483
0.007964
0.024699
0.039316
0.085635
0.046717
0.068972
0.012764
0.048570
0.015231
0.017505
0.021928
0.067055
0.021520
0.043180
0.080460
0.057176
0.049167
0.034054
0.012280
0.008671
0.066401
0.045382
0.057492
0.045638
0.036922
0.034842
0.077214
0.017794
0.014571
0.007977
0.035690
0.013074
0.066737
0.063574
0.101634
0.047761
0.062629
0.001776
0.036370
0.083336
0.022030
0.087382
0.066489
0.042178
0.025348
0.069048
0.070344
0.008672
0.008751
0.023240
0.011856
0.033377
0.021671
0.011471
0.020028
0.004310
0.102055
0.006319
0.006008
0.017818
0.035863
0.018762
0.023774
0.045147
0.011760
0.020542
0.014545
0.013080
0.016745
0.005025
0.014735
0.006230
0.080630
0.101020
0.084369
0.108676
0.020571
0.057812
0.022708
0.014150
0.048232
0.015257
0.016698
0.026484
0.008057
0.006623
0.035244
0.008166
0.057532
0.061034
0.028504
0.011920
0.013528
0.014224
0.043022
0.017119
0.032659
0.021760
0.033673
0.013102
0.064490
0.066212
0.017072
0.023455
0.010460
0.012696
0.008749
0.022708
0.029088
0.021117
0.063790
0.068726
0.047148
0.050657
0.085868
0.042056
0.124192
0.063005
0.104724
0.085801
0.085321
0.062257
0.094998
0.056907
0.003025
0.009107
0.009208
0.036711
0.043541
0.034633
0.034451
0.007837
0.014438
0.005700
0.081978
0.048215
0.088362
0.050287
0.051778
0.041451
0.016807
0.054557
0.022280
0.022969
0.014243
0.006401
0.083196
0.008824
0.018483
0.009747
0.042808
0.043071
0.049043
0.081677
0.086620
0.002057
0.100717
0.133639
0.100914
0.056569
0.007548
0.085338
0.053915
0.011206
0.030118
0.107789
0.040385
0.104252
0.079862
0.104929
0.058576
0.149637
0.140136
