# vtk DataFile Version 2.0
Unstructured Grid Example
ASCII
DATASET UNSTRUCTURED_GRID
POINTS 1221 float
-0.000243 0.001931 -0.010021 
0.999561 -0.001675 0.007352 
1.000248 0.997799 -0.011313 
0.000949 1.002347 0.006496 
0.000490 -0.002217 0.039974 
1.000689 0.002122 0.057342 
0.999821 1.002226 0.038693 
-0.001059 0.997632 0.056502 
0.000467 0.047772 0.044271 
0.000565 0.097721 0.048750 
0.000576 0.147918 0.053193 
0.000595 0.198508 0.056779 
0.000575 0.249292 0.059149 
0.000533 0.299721 0.060182 
0.000566 0.350218 0.060433 
0.000464 0.401058 0.059229 
0.000144 0.451750 0.055937 
0.000048 0.501908 0.051586 
-0.000274 0.551989 0.046732 
-0.000425 0.601907 0.041980 
-0.000914 0.651272 0.037773 
-0.001033 0.700139 0.035673 
-0.001079 0.749060 0.035960 
-0.001034 0.798460 0.038566 
-0.001060 0.848061 0.042266 
-0.001054 0.897773 0.046871 
-0.001047 0.947628 0.051682 
-0.000347 0.051920 -0.005731 
-0.000454 0.102046 -0.001200 
-0.000593 0.151889 0.003161 
-0.000630 0.201455 0.006852 
-0.000539 0.250540 0.009125 
-0.000515 0.300370 0.010192 
-0.000408 0.350011 0.010467 
-0.000262 0.399191 0.009151 
0.000027 0.448664 0.005911 
0.000128 0.498196 0.001581 
0.000457 0.548255 -0.003250 
0.000673 0.598338 -0.007958 
0.001097 0.648806 -0.012145 
0.001231 0.699688 -0.014296 
0.001397 0.750749 -0.013870 
0.001203 0.801385 -0.011581 
0.001093 0.851967 -0.007720 
0.001059 0.902303 -0.003165 
0.001000 0.952349 0.001681 
0.000126 -0.000140 0.015003 
-0.000053 0.999991 0.031482 
0.050493 -0.002101 0.039395 
0.100366 -0.001832 0.039064 
0.150214 -0.001638 0.038960 
0.200019 -0.001304 0.039106 
0.249895 -0.001340 0.039299 
0.299540 -0.001324 0.039931 
0.349330 -0.000987 0.041347 
0.398852 -0.000890 0.043661 
0.448712 -0.000712 0.046436 
0.498745 -0.000477 0.049590 
0.548915 -0.000028 0.052607 
0.599171 0.000240 0.055111 
0.649331 0.000704 0.057509 
0.699679 0.001003 0.059357 
0.749998 0.001416 0.060289 
0.800372 0.001570 0.060534 
0.850540 0.001715 0.060135 
0.900614 0.001801 0.059302 
0.950690 0.002015 0.058400 
0.049778 0.001950 -0.010599 
0.099869 0.001822 -0.010941 
0.149972 0.001467 -0.011185 
0.199981 0.001311 -0.010886 
0.249994 0.001260 -0.010692 
0.300348 0.001152 -0.010136 
0.350726 0.000976 -0.008579 
0.401091 0.000699 -0.006398 
0.451230 0.000441 -0.003531 
0.501241 0.000128 -0.000456 
0.551027 -0.000133 0.002622 
0.600809 -0.000364 0.005089 
0.650738 -0.000921 0.007411 
0.700580 -0.001199 0.009368 
0.750224 -0.001543 0.010419 
0.799941 -0.001623 0.010513 
0.849699 -0.001640 0.010114 
0.899630 -0.001658 0.009316 
0.949577 -0.001713 0.008379 
1.000126 0.000222 0.032330 
1.000661 0.052083 0.053475 
1.000646 0.102009 0.049481 
1.000696 0.151724 0.045823 
1.000698 0.201503 0.042440 
1.000820 0.251149 0.039749 
1.000658 0.300236 0.038570 
1.000579 0.349341 0.039248 
1.000429 0.398300 0.042095 
1.000055 0.447741 0.046702 
0.999707 0.497653 0.052183 
0.999529 0.548013 0.057344 
0.999169 0.598679 0.061369 
0.998978 0.649639 0.063518 
0.999205 0.700848 0.063156 
0.999309 0.751570 0.060903 
0.999331 0.801739 0.057277 
0.999446 0.851989 0.052707 
0.999673 0.902150 0.047986 
0.999732 0.952194 0.043245 
0.999483 0.048335 0.003440 
0.999399 0.098293 -0.000527 
0.999256 0.148597 -0.004280 
0.999217 0.198665 -0.007545 
0.999142 0.248962 -0.010279 
0.999203 0.299910 -0.011465 
0.999261 0.350507 -0.010685 
0.999468 0.401634 -0.007994 
0.999746 0.452173 -0.003214 
1.000071 0.502216 0.002159 
1.000233 0.551771 0.007340 
1.000695 0.601208 0.011369 
1.000789 0.650319 0.013462 
1.000699 0.699374 0.013314 
1.000590 0.748609 0.010887 
1.000450 0.798093 0.007153 
1.000318 0.847767 0.002786 
1.000265 0.897782 -0.002036 
1.000237 0.947743 -0.006724 
1.000035 1.000011 0.013719 
0.949782 1.002202 0.038413 
0.899856 1.001945 0.038370 
0.849969 1.001812 0.038315 
0.800022 1.001664 0.038559 
0.750176 1.001560 0.039057 
0.700412 1.001268 0.040036 
0.650587 1.001116 0.041887 
0.601195 1.000445 0.044428 
0.551344 1.000369 0.047852 
0.501273 0.999849 0.051480 
0.451101 0.999575 0.054646 
0.401152 0.999153 0.057589 
0.350857 0.998885 0.060388 
0.300179 0.998757 0.062150 
0.249737 0.998406 0.062932 
0.199399 0.998224 0.062633 
0.149152 0.998142 0.061708 
0.098997 0.997922 0.060102 
0.048947 0.997689 0.058397 
0.950231 0.997917 -0.011531 
0.900121 0.998001 -0.011629 
0.850118 0.998250 -0.011699 
0.799959 0.998350 -0.011367 
0.749794 0.998461 -0.010944 
0.699529 0.998644 -0.010073 
0.649252 0.998739 -0.008171 
0.599017 0.999508 -0.005511 
0.548720 0.999874 -0.002109 
0.498816 1.000422 0.001407 
0.449275 1.000670 0.004592 
0.399170 1.001151 0.007634 
0.349264 1.001364 0.010425 
0.299599 1.001637 0.012186 
0.250081 1.001938 0.012923 
0.200449 1.002062 0.012761 
0.150667 1.001995 0.011665 
0.100834 1.002204 0.010130 
0.050930 1.002306 0.008382 
0.024497 1.000563 0.026317 
0.019315 0.999018 0.042676 
0.975786 0.999505 0.007443 
0.980141 1.000949 0.023993 
0.481726 1.000174 0.027666 
0.774996 1.000003 0.013784 
0.675099 0.999973 0.015827 
0.525753 1.000147 0.024520 
0.725001 0.999959 0.014351 
0.625167 0.999740 0.018061 
0.074934 1.000025 0.034322 
0.224968 1.000116 0.037997 
0.575132 1.000119 0.021271 
0.174879 1.000152 0.037262 
0.124915 1.000105 0.035953 
0.874974 0.999951 0.013344 
0.825050 1.000003 0.013416 
0.375014 1.000194 0.034016 
0.918304 0.999980 0.013343 
0.274953 1.000141 0.037790 
0.324964 1.000176 0.036448 
0.425109 1.000098 0.031188 
0.500203 0.500041 0.049336 
0.292585 0.294253 0.053569 
0.707040 0.705088 0.051968 
0.709349 0.291052 0.046891 
0.290561 0.709203 0.047204 
0.501450 0.781466 0.049064 
0.783940 0.497117 0.050187 
0.499534 0.223212 0.050106 
0.224483 0.503509 0.052728 
0.168612 0.169434 0.050630 
0.831432 0.170845 0.049009 
0.829913 0.832489 0.051461 
0.168249 0.828910 0.048589 
0.563470 0.640543 0.048684 
0.436747 0.359317 0.051234 
0.642549 0.437346 0.047634 
0.353538 0.567375 0.050118 
0.639762 0.847401 0.047600 
0.360688 0.153077 0.047908 
0.151687 0.360866 0.057612 
0.847113 0.359600 0.042987 
0.845473 0.640895 0.057357 
0.641411 0.154005 0.052133 
0.358644 0.845527 0.052533 
0.153259 0.635652 0.044077 
0.677603 0.581359 0.050201 
0.561003 0.330887 0.048944 
0.439477 0.669238 0.048728 
0.322200 0.420224 0.053124 
0.534332 0.882219 0.048946 
0.464661 0.117927 0.049552 
0.882045 0.463954 0.048591 
0.120025 0.466918 0.054675 
0.744226 0.898022 0.045745 
0.108430 0.257910 0.056753 
0.258763 0.096656 0.044880 
0.897149 0.256644 0.042914 
0.888858 0.737780 0.058449 
0.737493 0.111203 0.054167 
0.262528 0.888450 0.055369 
0.109448 0.738012 0.040848 
0.600505 0.740147 0.049222 
0.399268 0.259518 0.051049 
0.745325 0.404172 0.045923 
0.251285 0.598613 0.048284 
0.598411 0.520860 0.048496 
0.398347 0.475188 0.051052 
0.612017 0.254196 0.049354 
0.388164 0.745776 0.049097 
0.098128 0.093207 0.046369 
0.902999 0.096309 0.052331 
0.904870 0.904038 0.046531 
0.097685 0.903603 0.051685 
0.437268 0.902683 0.052490 
0.902449 0.562003 0.056643 
0.562540 0.096935 0.052577 
0.096648 0.564775 0.047177 
0.258905 0.201318 0.050590 
0.741233 0.797858 0.051402 
0.797577 0.259036 0.045846 
0.208769 0.744941 0.045195 
0.196487 0.278181 0.055141 
0.797443 0.716140 0.055153 
0.714877 0.207254 0.049810 
0.285308 0.792333 0.049615 
0.502373 0.411945 0.049819 
0.497392 0.588380 0.048850 
0.241269 0.365264 0.055453 
0.758444 0.634239 0.053622 
0.689211 0.500340 0.048945 
0.646294 0.345378 0.047296 
0.308992 0.505278 0.051959 
0.353954 0.654862 0.048597 
0.080766 0.181933 0.053770 
0.177325 0.082742 0.044316 
0.817418 0.920731 0.044322 
0.919856 0.183804 0.045945 
0.916804 0.822587 0.053671 
0.821566 0.084263 0.054859 
0.079868 0.816042 0.043428 
0.184584 0.912510 0.055752 
0.651443 0.655472 0.050251 
0.348470 0.344472 0.053035 
0.514031 0.696450 0.048634 
0.486297 0.303366 0.050244 
0.610815 0.917328 0.046199 
0.388922 0.082360 0.046088 
0.078776 0.395251 0.058549 
0.917530 0.389214 0.042903 
0.924185 0.660749 0.060946 
0.660414 0.075802 0.055094 
0.339850 0.923918 0.056790 
0.073639 0.661769 0.040278 
0.431657 0.821284 0.050478 
0.820310 0.565127 0.054403 
0.568445 0.178283 0.050974 
0.179254 0.568403 0.048551 
0.190847 0.431764 0.055734 
0.573813 0.818357 0.048407 
0.426539 0.178412 0.049251 
0.821641 0.425692 0.046224 
0.565757 0.457480 0.048646 
0.435545 0.542218 0.049670 
0.774604 0.331250 0.044544 
0.224953 0.668709 0.045436 
0.666985 0.781290 0.049980 
0.333512 0.217577 0.050327 
0.677752 0.931242 0.044178 
0.069070 0.317593 0.058836 
0.322806 0.068404 0.043792 
0.930986 0.322667 0.040495 
0.744906 0.559362 0.051824 
0.447879 0.736246 0.048950 
0.552097 0.263512 0.049719 
0.613798 0.594734 0.049083 
0.386243 0.406024 0.052007 
0.259101 0.443458 0.054159 
0.585747 0.392861 0.048315 
0.414683 0.607156 0.049174 
0.450840 0.428141 0.050639 
0.548707 0.572174 0.048643 
0.485266 0.934252 0.051326 
0.934333 0.513544 0.053180 
0.514256 0.065201 0.050828 
0.065042 0.516822 0.050748 
0.500731 0.838880 0.049594 
0.837579 0.505870 0.051571 
0.500106 0.152382 0.050423 
0.153638 0.502558 0.052627 
0.696379 0.843993 0.048323 
0.304144 0.156015 0.047798 
0.842776 0.303337 0.043049 
0.148735 0.702208 0.042343 
0.160146 0.230590 0.054292 
0.841215 0.774137 0.055387 
0.773594 0.158940 0.051019 
0.226351 0.840691 0.051420 
0.670225 0.238663 0.049005 
0.330088 0.761247 0.048890 
0.697242 0.355772 0.046323 
0.302743 0.644548 0.048069 
0.938892 0.605521 0.060193 
0.605949 0.060532 0.054432 
0.394537 0.938927 0.055474 
0.059988 0.608152 0.042880 
0.700262 0.432943 0.047076 
0.303843 0.559326 0.050404 
0.054890 0.052037 0.043676 
0.946189 0.056043 0.054429 
0.945637 0.947729 0.043098 
0.053532 0.943695 0.053554 
0.772689 0.947495 0.042313 
0.056161 0.231887 0.057185 
0.227011 0.053036 0.042270 
0.944496 0.773080 0.058189 
0.771808 0.056208 0.057231 
0.228625 0.943322 0.059033 
0.947202 0.228530 0.042570 
0.053912 0.770610 0.039147 
0.220260 0.159139 0.048922 
0.775028 0.849140 0.049326 
0.847851 0.225642 0.045819 
0.154865 0.773352 0.044443 
0.553771 0.948141 0.048104 
[...]
POINT_DATA 1221
SCALARS u float 1
LOOKUP_TABLE default
0.105048
0.077723
0.118617
0.071741
0.105778
0.078965
0.118597
0.072033
0.063433
0.027372
0.039666
0.071689
0.094612
0.104955
0.107534
0.095708
0.063708
0.025538
0.039469
0.084938
0.126846
0.147816
0.145224
0.119193
0.082766
0.040984
0.031798
0.062293
0.024851
0.038383
0.072374
0.094223
0.105083
0.107790
0.094575
0.062359
0.024718
0.038250
0.083941
0.126077
0.147686
0.143657
0.120657
0.082744
0.041731
0.031455
0.102885
0.066700
0.111360
0.114160
0.114864
0.112897
0.110981
0.104606
0.089882
0.066922
0.039679
0.014445
0.029053
0.053341
0.077916
0.096893
0.106875
0.109660
0.105917
0.097703
0.089168
0.110923
0.114141
0.116077
0.112827
0.110783
0.105028
0.089161
0.067178
0.038748
0.013671
0.029009
0.053156
0.077217
0.097366
0.108402
0.109459
0.105478
0.097441
0.088115
0.075468
0.042243
0.022359
0.047043
0.079641
0.106475
0.117837
0.111011
0.083323
0.041137
0.033119
0.078437
0.118088
0.139550
0.135904
0.113573
0.077295
0.035038
0.030499
0.073139
0.039681
0.019398
0.046975
0.079256
0.106680
0.118260
0.110339
0.084142
0.040002
0.031845
0.077729
0.117861
0.138798
0.137342
0.113105
0.076311
0.036890
0.031102
0.073028
0.116079
0.121381
0.121342
0.121681
0.118966
0.113760
0.103444
0.084486
0.058821
0.026345
0.020148
0.049325
0.079468
0.107865
0.125689
0.134111
0.131414
0.122298
0.106625
0.090269
0.120600
0.121429
0.121733
0.118199
0.113746
0.104697
0.085419
0.057828
0.025418
0.019416
0.048334
0.079902
0.108458
0.126588
0.134467
0.133096
0.121965
0.107020
0.089969
0.076683
0.075542
0.117896
0.117953
0.027495
0.115418
0.094401
0.005173
0.109582
0.071477
0.095927
0.133751
0.038393
0.126190
0.112712
0.119944
0.119200
0.092794
0.119954
0.131618
0.117816
0.063697
0.007157
0.037519
0.021254
0.032266
0.029017
0.009691
0.010730
0.001206
0.029239
0.014824
0.016366
0.021919
0.021953
0.013686
0.013342
0.024521
0.004052
0.025491
0.022625
0.078492
0.072497
0.076310
0.022361
0.027595
0.061731
0.007334
0.011373
0.013204
0.032511
0.012520
0.007483
0.022822
0.049956
0.046252
0.069756
0.054016
0.073804
0.087646
0.043995
0.056757
0.094691
0.009524
0.012074
0.042227
0.019891
0.015494
0.011475
0.007535
0.009356
0.041129
0.029265
0.039622
0.027104
0.026316
0.069684
0.027273
0.033596
0.012123
0.016853
0.043841
0.049801
0.053605
0.053586
0.007269
0.011539
0.003590
0.011932
0.056301
0.038020
0.012088
0.028037
0.020644
0.014623
0.041769
0.060680
0.060655
0.044709
0.041412
0.052584
0.070195
0.062188
0.005318
0.031489
0.014090
0.004315
0.039649
0.041303
0.088297
0.073511
0.112951
0.053015
0.070778
0.100448
0.008533
0.046498
0.010821
0.021605
0.059223
0.016442
0.009818
0.040859
0.014259
0.004247
0.056238
0.047500
0.006018
0.009271
0.060773
0.091132
0.065191
0.098031
0.020617
0.010931
0.003705
0.010080
0.020844
0.043161
0.017626
0.008610
0.006989
0.013989
0.015215
0.037168
0.013126
0.018406
0.007981
0.022107
0.005192
0.030371
0.020993
0.024207
0.071854
0.079043
0.044982
0.056797
0.014580
0.020137
0.011677
0.012779
0.038003
0.020397
0.105655
0.046005
0.057369
0.075010
0.030314
0.008380
0.068648
0.050125
0.074432
0.044323
0.080605
0.074250
0.080536
0.085851
0.075762
0.094393
0.078194
0.112697
0.015551
0.018554
0.044260
0.059425
0.020696
0.037334
0.027951
0.066673
0.072911
0.079711
0.026042
0.032946
0.012612
0.004764
0.004172
0.014452
0.072498
0.008281
0.018812
0.043606
0.020191
0.006500
0.026017
0.020637
0.080389
0.024658
0.079609
0.067627
0.021341
0.046240
0.076290
0.018417
0.022252
0.011444
0.039587
0.016733
0.013016
0.024386
0.025339
0.020779
0.056231
0.034955
0.032240
0.028460
0.032330
0.052290
0.039060
0.013427
0.007406
0.058095
0.115209
0.072239
0.123187
0.093762
0.030459
0.024265
0.018272
0.027098
0.007309
0.008109
0.012383
0.010527
0.020008
0.030064
0.022891
0.029985
0.022254
0.017461
0.040553
0.090667
0.035518
0.069006
0.054910
0.012797
0.002311
0.032636
0.009387
0.065903
0.058576
0.008811
0.012311
0.035052
0.038991
0.042839
0.084921
0.041077
0.077475
0.030290
0.039262
0.044180
0.027734
0.034192
0.008018
0.031816
0.011282
0.022728
0.087380
0.006472
0.003515
0.008182
0.007812
0.066734
0.078848
0.091921
0.081262
0.100036
0.029903
0.035861
0.052695
0.011763
0.009718
0.017073
0.053291
0.061038
0.097869
0.067771
0.095435
0.044331
0.009053
0.019888
0.015806
0.035219
0.019286
0.031589
0.044494
0.014688
0.019899
0.043974
0.043178
0.050128
0.090447
0.054408
0.092619
0.050361
0.083673
0.088061
0.094400
0.012484
0.010508
0.083281
0.007083
0.033466
0.011291
0.002184
0.018862
0.011360
0.025758
0.054753
0.007593
0.014208
0.011563
0.013476
0.003972
0.000845
0.008080
0.022108
0.004629
0.028666
0.096947
0.128317
0.073009
0.120373
0.012474
0.005978
0.094583
0.047630
0.036373
0.046906
0.056513
0.081536
0.014311
0.002627
0.020166
0.040156
0.087250
0.046971
0.066107
0.010299
0.049899
0.014934
0.017408
0.020549
0.067454
0.021499
0.043079
0.079490
0.057677
0.048199
0.031307
0.017826
0.010668
0.011905
0.008419
0.067394
0.044380
0.056481
0.045106
0.036868
0.036639
0.076836
0.025261
0.008101
0.040149
0.019019
0.014938
0.008695
0.036289
0.065815
0.063010
0.101058
0.046284
0.061895
0.012107
0.038209
0.083199
0.024423
0.087342
0.066770
0.042373
0.024840
0.068567
0.070836
0.013049
0.008230
0.024777
0.032342
0.021416
0.019436
0.004656
0.099489
0.035429
0.012041
0.008421
0.004465
0.018978
0.005334
0.027810
0.024562
0.046714
0.014332
0.009775
0.014272
0.013730
0.005098
0.022357
0.006066
0.013979
0.032011
0.079125
0.100058
0.083268
0.108512
0.020711
0.058155
0.015186
0.047198
0.014700
0.016598
0.025118
0.005920
0.008068
0.036288
0.056164
0.059419
0.028833
0.012169
0.008977
0.013482
0.013643
0.043181
0.015799
0.033187
0.021158
0.039947
0.014385
0.063600
0.065882
0.016840
0.020519
0.009054
0.012449
0.022620
0.020195
0.028947
0.021457
0.064850
0.069898
0.046169
0.050142
0.086559
0.041142
0.124900
0.062157
0.104626
0.083816
0.085838
0.063777
0.095609
0.057416
0.000889
0.008706
0.009540
0.010649
0.036643
0.042787
0.033150
0.013859
0.005493
0.083777
0.048741
0.087337
0.052025
0.052695
0.041728
0.017822
0.054099
0.022245
0.023734
0.014076
0.006497
0.082286
0.008703
0.008786
0.019155
0.011977
0.043297
0.093824
0.098356
0.056273
0.060811
0.042350
0.115960
0.094260
0.052038
0.003671
0.045581
0.092707
0.061322
0.025159
0.010023
0.117594
0.007019
0.059136
0.099831
0.098659
0.130741
0.126517
0.141428
0.080915
0.080597
0.106278
0.106126
0.007454
0.108275
0.100389
0.107703
0.091439
0.109209
0.113410
0.114093
0.111303
0.112304
0.077893
0.021944
0.097546
0.050821
0.063802
0.087142
0.102885
0.041270
0.007291
0.037462
0.020672
0.033442
0.030864
0.009067
0.009874
0.002165
0.027684
0.017298
0.017674
0.020823
0.024775
0.012866
0.013588
0.026098
0.003553
0.026079
0.022543
0.077450
0.073419
0.074727
0.022714
0.027577
0.061561
0.005514
0.033130
0.011504
0.013454
0.012121
0.008461
0.021683
0.050045
0.047899
0.070790
0.054447
0.073050
0.088292
0.043566
0.058677
0.095086
0.009839
0.010880
0.042987
0.019812
0.015820
0.011441
0.009464
0.010228
0.040268
0.029042
0.040614
0.028900
0.027868
0.068263
0.027638
0.034020
0.011901
0.016418
0.044816
0.049330
0.052900
0.053402
0.009939
0.013625
0.004399
0.012262
0.056881
0.037492
0.013177
0.021208
0.027306
0.014028
0.041513
0.059562
0.061401
0.044435
0.041028
0.052715
0.070851
0.062642
0.005200
0.014091
0.030791
0.004618
0.038808
0.039796
0.086797
0.074131
0.113599
0.054083
0.070569
0.102844
0.009125
0.046276
0.011981
0.023885
0.058858
0.015746
0.008957
0.041738
0.014329
0.004239
0.006626
0.053992
0.048086
0.008553
0.060767
0.092059
0.065334
0.098233
0.019014
0.011172
0.004777
0.009359
0.020825
0.042400
0.018097
0.009018
0.007127
0.014435
0.016470
0.038871
0.013303
0.017488
0.006944
0.022187
0.005009
0.029831
0.019426
0.024167
0.070830
0.079862
0.044690
0.057118
0.014688
0.022790
0.012697
0.012661
0.041002
0.023224
0.103877
0.046199
0.059584
0.075330
0.020591
0.015078
0.067523
0.047927
0.073382
0.044003
0.080913
0.074951
0.080539
0.084691
0.075376
0.096278
0.077950
0.109007
0.015244
0.015576
0.045017
0.060355
0.019820
0.035434
0.027439
0.066287
0.073400
0.080332
0.026593
0.035459
0.006580
0.005289
0.004199
0.015107
0.070977
0.012488
0.027847
0.043786
0.019567
0.007975
0.012889
0.019102
0.079377
0.023185
0.079595
0.066854
0.020672
0.047212
0.075676
0.010924
0.022166
0.039124
0.017814
0.013004
0.033618
0.007651
0.024698
0.020013
0.054353
0.034400
0.032802
0.028295
0.031957
0.051939
0.038440
0.005359
0.014320
0.057016
0.116338
0.072990
0.125398
0.094936
0.030843
0.023633
0.016408
0.028150
0.008631
0.010109
0.019059
0.010435
0.019481
0.030696
0.023674
0.029156
0.023113
0.019378
0.041788
0.088951
0.035688
0.068831
0.054159
0.013194
0.002731
0.066312
0.058349
0.010232
0.012913
0.035181
0.039223
0.041369
0.085888
0.040894
0.078752
0.030827
0.039585
0.042139
0.026790
0.033478
0.009140
0.033284
0.011680
0.021303
0.088536
0.006932
0.005425
0.008374
0.007986
0.066520
0.080411
0.092839
0.081491
0.100078
0.012473
0.029082
0.035167
0.052361
0.012065
0.010080
0.053316
0.025613
0.009503
0.062900
0.098878
0.065389
0.096474
0.044828
0.005939
0.018939
0.016424
0.035380
0.018839
0.033640
0.043925
0.020304
0.013859
0.044430
0.044841
0.049393
0.090873
0.053817
0.093656
0.049725
0.083187
0.088286
0.094347
0.083055
0.012886
0.020308
0.036349
0.006369
0.032845
0.031341
0.011722
0.002972
0.019337
0.026589
0.011835
0.008247
0.025837
0.053894
0.007790
0.014746
0.011876
0.013604
0.002409
0.005295
0.007873
0.003340
0.028863
0.097193
0.127938
0.073783
0.124199
0.004852
0.013022
0.092992
0.048472
0.036455
0.046998
0.055941
0.080606
0.013483
0.007964
0.024699
0.039316
0.085635
0.046717
0.068972
0.012764
0.048570
0.015231
0.017505
0.021928
0.067055
0.021520
0.043180
0.080460
0.057176
0.049167
0.034054
0.012280
0.008671
0.066401
0.045382
0.057492
0.045638
0.036922
0.034842
0.077214
0.017794
0.014571
0.007977
0.035690
0.013074
0.066737
0.063574
0.101634
0.047761
0.062629
0.001776
0.036370
0.083336
0.022030
0.087382
0.066489
0.042178
0.025348
0.069048
0.070344
0.008672
0.008751
0.023240
0.011856
0.033377
0.021671
0.011471
0.020028
0.004310
0.102055
0.006319
0.006008
0.017818
0.035863
0.018762
0.023774
0.045147
0.011760
0.020542
0.014545
0.013080
0.016745
0.005025
0.014735
0.006230
0.080630
0.101020
0.084369
0.108676
0.020571
0.057812
0.022708
0.014150
0.048232
0.015257
0.016698
0.026484
0.008057
0.006623
0.035244
0.008166
0.057532
0.061034
0.028504
0.011920
0.013528
0.014224
0.043022
0.017119
0.032659
0.021760
0.033673
0.013102
0.064490
0.066212
0.017072
0.023455
0.010460
0.012696
0.008749
0.022708
0.029088
0.021117
0.063790
0.068726
0.047148
0.050657
0.085868
0.042056
0.124192
0.063005
0.104724
0.085801
0.085321
0.062257
0.094998
0.056907
0.003025
0.009107
0.009208
0.036711
0.043541
0.034633
0.034451
0.007837
0.014438
0.005700
0.081978
0.048215
0.088362
0.050287
0.051778
0.041451
0.016807
0.054557
0.022280
0.022969
0.014243
0.006401
0.083196
0.008824
0.018483
0.009747
0.042808
0.043071
0.049043
0.081677
0.086620
0.002057
0.100717
0.133639
0.100914
0.056569
0.007548
0.085338
0.053915
0.011206
0.030118
0.107789
0.040385
0.104252
0.079862
0.104929
0.058576
0.149637
0.140136
