# vtk DataFile Version 2.0
Unstructured Grid Example
ASCII
DATASET UNSTRUCTURED_GRID
POINTS 1221 float
-0.000227 0.001807 -0.009380 
0.999589 -0.001568 0.006882 
1.000232 0.997940 -0.010589 
0.000888 1.002197 0.006080 
0.000459 -0.002075 0.040616 
1.000645 0.001986 0.056873 
0.999833 1.002084 0.039417 
-0.000992 0.997783 0.056086 
0.000437 0.047915 0.044638 
0.000528 0.097866 0.048830 
0.000539 0.148051 0.052988 
0.000557 0.198603 0.056345 
0.000538 0.249337 0.058564 
0.000498 0.299739 0.059530 
0.000530 0.350204 0.059765 
0.000434 0.400990 0.058639 
0.000135 0.451638 0.055557 
0.000044 0.501786 0.051485 
-0.000256 0.551862 0.046941 
-0.000398 0.601785 0.042493 
-0.000855 0.651190 0.038555 
-0.000967 0.700130 0.036590 
-0.001010 0.749120 0.036858 
-0.000968 0.798558 0.039298 
-0.000992 0.848185 0.042761 
-0.000986 0.897915 0.047071 
-0.000980 0.947780 0.051574 
-0.000325 0.051797 -0.005364 
-0.000425 0.101915 -0.001123 
-0.000555 0.151768 0.002959 
-0.000589 0.201362 0.006414 
-0.000505 0.250506 0.008541 
-0.000482 0.300346 0.009540 
-0.000382 0.350011 0.009797 
-0.000245 0.399243 0.008566 
0.000025 0.448750 0.005533 
0.000120 0.498311 0.001480 
0.000428 0.548367 -0.003042 
0.000630 0.598444 -0.007449 
0.001027 0.648882 -0.011367 
0.001152 0.699708 -0.013381 
0.001308 0.750701 -0.012983 
0.001126 0.801296 -0.010840 
0.001023 0.851841 -0.007226 
0.000991 0.902156 -0.002963 
0.000936 0.952199 0.001574 
0.000118 -0.000131 0.015643 
-0.000049 0.999991 0.031067 
0.050461 -0.001967 0.040074 
0.100342 -0.001714 0.039764 
0.150201 -0.001533 0.039667 
0.200018 -0.001220 0.039803 
0.249901 -0.001254 0.039983 
0.299569 -0.001240 0.040576 
0.349373 -0.000924 0.041901 
0.398925 -0.000833 0.044066 
0.448795 -0.000667 0.046664 
0.498825 -0.000446 0.049616 
0.548985 -0.000026 0.052440 
0.599224 0.000225 0.054784 
0.649374 0.000659 0.057029 
0.699700 0.000939 0.058758 
0.749998 0.001325 0.059631 
0.800348 0.001470 0.059860 
0.850506 0.001606 0.059486 
0.900575 0.001686 0.058707 
0.950646 0.001886 0.057862 
0.049793 0.001825 -0.009921 
0.099877 0.001705 -0.010241 
0.149974 0.001373 -0.010469 
0.199982 0.001227 -0.010189 
0.249995 0.001180 -0.010008 
0.300326 0.001079 -0.009487 
0.350679 0.000913 -0.008030 
0.401022 0.000654 -0.005989 
0.451152 0.000412 -0.003306 
0.501162 0.000120 -0.000427 
0.550961 -0.000125 0.002454 
0.600757 -0.000341 0.004763 
0.650690 -0.000862 0.006937 
0.700543 -0.001122 0.008768 
0.750209 -0.001445 0.009752 
0.799945 -0.001519 0.009840 
0.849718 -0.001535 0.009467 
0.899654 -0.001552 0.008720 
0.949604 -0.001604 0.007843 
1.000118 0.000208 0.031861 
1.000619 0.051949 0.053253 
1.000604 0.101880 0.049514 
1.000652 0.151614 0.046091 
1.000654 0.201407 0.042924 
1.000768 0.251075 0.040405 
1.000616 0.300221 0.039301 
1.000542 0.349383 0.039936 
1.000401 0.398409 0.042600 
1.000052 0.447886 0.046913 
0.999726 0.497803 0.052043 
0.999559 0.548140 0.056874 
0.999222 0.598763 0.060642 
0.999044 0.649662 0.062653 
0.999256 0.700794 0.062314 
0.999353 0.751470 0.060205 
0.999374 0.801628 0.056811 
0.999481 0.851862 0.052534 
0.999694 0.902012 0.048115 
0.999749 0.952054 0.043677 
0.999516 0.048442 0.003220 
0.999437 0.098402 -0.000494 
0.999304 0.148687 -0.004006 
0.999267 0.198750 -0.007062 
0.999197 0.249029 -0.009622 
0.999254 0.299916 -0.010731 
0.999308 0.350474 -0.010002 
0.999502 0.401529 -0.007483 
0.999763 0.452034 -0.003008 
1.000066 0.502074 0.002021 
1.000218 0.551658 0.006870 
1.000651 0.601131 0.010641 
1.000739 0.650299 0.012600 
1.000654 0.699414 0.012462 
1.000552 0.748698 0.010191 
1.000421 0.798215 0.006695 
1.000298 0.847910 0.002608 
1.000248 0.897923 -0.001905 
1.000222 0.947888 -0.006294 
1.000033 1.000010 0.014441 
0.949796 1.002061 0.039155 
0.899865 1.001821 0.039114 
0.849971 1.001696 0.039062 
0.800020 1.001557 0.039291 
0.750165 1.001460 0.039757 
0.700386 1.001186 0.040673 
0.650549 1.001045 0.042406 
0.601119 1.000417 0.044784 
0.551258 1.000345 0.047990 
0.501191 0.999858 0.051385 
0.451030 0.999602 0.054349 
0.401078 0.999207 0.057104 
0.350802 0.998956 0.059723 
0.300167 0.998837 0.061373 
0.249754 0.998508 0.062105 
0.199437 0.998338 0.061824 
0.149207 0.998261 0.060959 
0.099062 0.998055 0.059455 
0.049014 0.997837 0.057860 
0.950216 0.998050 -0.010793 
0.900114 0.998129 -0.010885 
0.850110 0.998362 -0.010951 
0.799961 0.998455 -0.010640 
0.749807 0.998560 -0.010244 
0.699559 0.998731 -0.009428 
0.649300 0.998820 -0.007648 
0.599080 0.999540 -0.005159 
0.548802 0.999882 -0.001974 
0.498892 1.000395 0.001317 
0.449321 1.000627 0.004298 
0.399223 1.001077 0.007146 
0.349311 1.001277 0.009758 
0.299625 1.001533 0.011406 
0.250075 1.001814 0.012096 
0.200420 1.001930 0.011945 
0.150624 1.001867 0.010918 
0.100780 1.002063 0.009482 
0.050871 1.002158 0.007846 
0.024485 1.000527 0.025842 
0.019345 0.999081 0.042212 
0.975780 0.999537 0.008175 
0.980145 1.000889 0.024724 
0.481722 1.000163 0.027495 
0.774996 1.000003 0.014501 
0.675093 0.999975 0.016413 
0.525752 1.000138 0.024550 
0.725000 0.999962 0.015032 
0.625156 0.999756 0.018505 
0.074938 1.000023 0.033726 
0.224970 1.000108 0.037166 
0.575129 1.000112 0.021510 
0.174887 1.000142 0.036477 
0.124921 1.000099 0.035252 
0.874976 0.999954 0.014090 
0.825047 1.000003 0.014157 
0.375013 1.000181 0.033439 
0.918306 0.999981 0.014089 
0.274956 1.000132 0.036972 
0.324966 1.000165 0.035716 
0.425102 1.000092 0.030792 
0.500190 0.500039 0.049379 
0.292568 0.294298 0.053341 
0.707080 0.705087 0.051842 
0.709332 0.291033 0.047089 
0.290585 0.709205 0.047383 
0.501445 0.781463 0.049124 
0.783973 0.497173 0.050175 
0.499532 0.223214 0.050100 
0.224469 0.503461 0.052553 
0.168587 0.169513 0.050590 
0.831404 0.170771 0.049072 
0.829939 0.832393 0.051367 
0.168298 0.829000 0.048679 
0.563481 0.640548 0.048768 
0.436722 0.359321 0.051155 
0.642542 0.437363 0.047785 
0.353528 0.567353 0.050110 
0.639766 0.847362 0.047754 
0.360693 0.153121 0.048042 
0.151662 0.360846 0.057125 
0.847091 0.359637 0.043436 
0.845527 0.640920 0.056886 
0.641418 0.153980 0.051997 
0.358633 0.845583 0.052371 
0.153293 0.635601 0.044456 
0.677646 0.581367 0.050188 
0.560982 0.330883 0.049012 
0.439467 0.669235 0.048810 
0.322171 0.420232 0.052924 
0.534295 0.882205 0.049013 
0.464698 0.117924 0.049581 
0.882061 0.464062 0.048681 
0.120017 0.466834 0.054376 
0.744231 0.897930 0.046017 
0.108399 0.257931 0.056321 
0.258755 0.096730 0.045207 
0.897113 0.256583 0.043368 
0.888908 0.737732 0.057908 
0.737463 0.111149 0.053900 
0.262556 0.888526 0.055025 
0.109500 0.738045 0.041434 
0.600536 0.740139 0.049271 
0.399251 0.259547 0.050982 
0.745320 0.404202 0.046184 
0.251310 0.598562 0.048394 
0.598409 0.520863 0.048592 
0.398327 0.475176 0.050984 
0.612001 0.254181 0.049395 
0.388160 0.745781 0.049155 
0.098094 0.093309 0.046602 
0.902961 0.096212 0.052182 
0.904891 0.903933 0.046753 
0.097741 0.903720 0.051577 
0.437240 0.902709 0.052331 
0.902489 0.562077 0.056218 
0.562580 0.096934 0.052412 
0.096666 0.564672 0.047357 
0.258890 0.201382 0.050553 
0.741272 0.797820 0.051312 
0.797554 0.258981 0.046111 
0.208786 0.744974 0.045503 
0.196468 0.278232 0.054812 
0.797491 0.716138 0.054823 
0.714862 0.207213 0.049822 
0.285311 0.792400 0.049640 
0.502354 0.411944 0.049831 
0.497383 0.588378 0.048924 
0.241241 0.365273 0.055104 
0.758489 0.634249 0.053390 
0.689233 0.500364 0.049012 
0.646273 0.345373 0.047469 
0.308978 0.505254 0.051834 
0.353960 0.654848 0.048687 
0.080733 0.182024 0.053529 
0.177308 0.082841 0.044680 
0.817429 0.920630 0.044685 
0.919811 0.183714 0.046204 
0.916830 0.822484 0.053436 
0.821529 0.084169 0.054548 
0.079930 0.816141 0.043849 
0.184631 0.912619 0.055384 
0.651472 0.655471 0.050235 
0.348446 0.344478 0.052841 
0.514031 0.696456 0.048721 
0.486276 0.303372 0.050228 
0.610776 0.917318 0.046442 
0.388959 0.082404 0.046338 
0.078752 0.395211 0.058002 
0.917504 0.389260 0.043357 
0.924235 0.660733 0.060246 
0.660419 0.075753 0.054768 
0.339843 0.923988 0.056356 
0.073690 0.661748 0.040900 
0.431628 0.821316 0.050447 
0.820353 0.565176 0.054122 
0.568454 0.178259 0.050912 
0.179274 0.568308 0.048644 
0.190820 0.431748 0.055367 
0.573805 0.818355 0.048508 
0.426548 0.178449 0.049298 
0.821642 0.425770 0.046465 
0.565738 0.457485 0.048733 
0.435531 0.542210 0.049691 
0.774583 0.331248 0.044894 
0.224986 0.668679 0.045728 
0.667022 0.781283 0.049982 
0.333499 0.217629 0.050306 
0.677726 0.931184 0.044551 
0.069036 0.317612 0.058270 
0.322800 0.068485 0.044189 
0.930944 0.322667 0.041103 
0.744957 0.559377 0.051708 
0.447876 0.736256 0.049017 
0.552089 0.263500 0.049737 
0.613819 0.594741 0.049142 
0.386227 0.406018 0.051878 
0.259069 0.443446 0.053893 
0.585727 0.392863 0.048423 
0.414675 0.607152 0.049227 
0.450826 0.428135 0.050598 
0.548701 0.572175 0.048730 
0.485235 0.934280 0.051241 
0.934356 0.513651 0.052977 
0.514317 0.065208 0.050775 
0.065060 0.516720 0.050700 
0.500696 0.838857 0.049620 
0.837603 0.505961 0.051471 
0.500121 0.152373 0.050396 
0.153632 0.502472 0.052458 
0.696398 0.843921 0.048431 
0.304129 0.156066 0.047939 
0.842748 0.303304 0.043494 
0.148774 0.702204 0.042833 
0.160111 0.230630 0.054018 
0.841263 0.774077 0.055042 
0.773568 0.158883 0.050954 
0.226381 0.840772 0.051329 
0.670209 0.238632 0.049069 
0.330083 0.761282 0.048961 
0.697220 0.355769 0.046558 
0.302766 0.644530 0.048193 
0.938938 0.605585 0.059541 
0.605985 0.060523 0.054148 
0.394490 0.938975 0.055123 
0.060009 0.608054 0.043336 
0.700262 0.432966 0.047263 
0.303846 0.559281 0.050379 
0.054860 0.052170 0.044081 
0.946150 0.055919 0.054146 
0.945653 0.947591 0.043540 
0.053596 0.943838 0.053327 
0.772692 0.947399 0.042805 
0.056128 0.231913 0.056726 
0.227003 0.053114 0.042765 
0.944539 0.772987 0.057665 
0.771797 0.056120 0.056768 
0.228647 0.943422 0.058455 
0.947159 0.228438 0.043045 
0.053980 0.770676 0.039841 
0.220242 0.159204 0.048991 
0.775046 0.849034 0.049369 
0.847827 0.225582 0.046087 
0.154915 0.773440 0.044798 
0.553734 0.948119 0.048225 
[...]
POINT_DATA 1221
SCALARS u float 1
LOOKUP_TABLE default
0.105048
0.077723
0.118617
0.071741
0.105778
0.078965
0.118597
0.072033
0.063433
0.027372
0.039666
0.071689
0.094612
0.104955
0.107534
0.095708
0.063708
0.025538
0.039469
0.084938
0.126846
0.147816
0.145224
0.119193
0.082766
0.040984
0.031798
0.062293
0.024851
0.038383
0.072374
0.094223
0.105083
0.107790
0.094575
0.062359
0.024718
0.038250
0.083941
0.126077
0.147686
0.143657
0.120657
0.082744
0.041731
0.031455
0.102885
0.066700
0.111360
0.114160
0.114864
0.112897
0.110981
0.104606
0.089882
0.066922
0.039679
0.014445
0.029053
0.053341
0.077916
0.096893
0.106875
0.109660
0.105917
0.097703
0.089168
0.110923
0.114141
0.116077
0.112827
0.110783
0.105028
0.089161
0.067178
0.038748
0.013671
0.029009
0.053156
0.077217
0.097366
0.108402
0.109459
0.105478
0.097441
0.088115
0.075468
0.042243
0.022359
0.047043
0.079641
0.106475
0.117837
0.111011
0.083323
0.041137
0.033119
0.078437
0.118088
0.139550
0.135904
0.113573
0.077295
0.035038
0.030499
0.073139
0.039681
0.019398
0.046975
0.079256
0.106680
0.118260
0.110339
0.084142
0.040002
0.031845
0.077729
0.117861
0.138798
0.137342
0.113105
0.076311
0.036890
0.031102
0.073028
0.116079
0.121381
0.121342
0.121681
0.118966
0.113760
0.103444
0.084486
0.058821
0.026345
0.020148
0.049325
0.079468
0.107865
0.125689
0.134111
0.131414
0.122298
0.106625
0.090269
0.120600
0.121429
0.121733
0.118199
0.113746
0.104697
0.085419
0.057828
0.025418
0.019416
0.048334
0.079902
0.108458
0.126588
0.134467
0.133096
0.121965
0.107020
0.089969
0.076683
0.075542
0.117896
0.117953
0.027495
0.115418
0.094401
0.005173
0.109582
0.071477
0.095927
0.133751
0.038393
0.126190
0.112712
0.119944
0.119200
0.092794
0.119954
0.131618
0.117816
0.063697
0.007157
0.037519
0.021254
0.032266
0.029017
0.009691
0.010730
0.001206
0.029239
0.014824
0.016366
0.021919
0.021953
0.013686
0.013342
0.024521
0.004052
0.025491
0.022625
0.078492
0.072497
0.076310
0.022361
0.027595
0.061731
0.007334
0.011373
0.013204
0.032511
0.012520
0.007483
0.022822
0.049956
0.046252
0.069756
0.054016
0.073804
0.087646
0.043995
0.056757
0.094691
0.009524
0.012074
0.042227
0.019891
0.015494
0.011475
0.007535
0.009356
0.041129
0.029265
0.039622
0.027104
0.026316
0.069684
0.027273
0.033596
0.012123
0.016853
0.043841
0.049801
0.053605
0.053586
0.007269
0.011539
0.003590
0.011932
0.056301
0.038020
0.012088
0.028037
0.020644
0.014623
0.041769
0.060680
0.060655
0.044709
0.041412
0.052584
0.070195
0.062188
0.005318
0.031489
0.014090
0.004315
0.039649
0.041303
0.088297
0.073511
0.112951
0.053015
0.070778
0.100448
0.008533
0.046498
0.010821
0.021605
0.059223
0.016442
0.009818
0.040859
0.014259
0.004247
0.056238
0.047500
0.006018
0.009271
0.060773
0.091132
0.065191
0.098031
0.020617
0.010931
0.003705
0.010080
0.020844
0.043161
0.017626
0.008610
0.006989
0.013989
0.015215
0.037168
0.013126
0.018406
0.007981
0.022107
0.005192
0.030371
0.020993
0.024207
0.071854
0.079043
0.044982
0.056797
0.014580
0.020137
0.011677
0.012779
0.038003
0.020397
0.105655
0.046005
0.057369
0.075010
0.030314
0.008380
0.068648
0.050125
0.074432
0.044323
0.080605
0.074250
0.080536
0.085851
0.075762
0.094393
0.078194
0.112697
0.015551
0.018554
0.044260
0.059425
0.020696
0.037334
0.027951
0.066673
0.072911
0.079711
0.026042
0.032946
0.012612
0.004764
0.004172
0.014452
0.072498
0.008281
0.018812
0.043606
0.020191
0.006500
0.026017
0.020637
0.080389
0.024658
0.079609
0.067627
0.021341
0.046240
0.076290
0.018417
0.022252
0.011444
0.039587
0.016733
0.013016
0.024386
0.025339
0.020779
0.056231
0.034955
0.032240
0.028460
0.032330
0.052290
0.039060
0.013427
0.007406
0.058095
0.115209
0.072239
0.123187
0.093762
0.030459
0.024265
0.018272
0.027098
0.007309
0.008109
0.012383
0.010527
0.020008
0.030064
0.022891
0.029985
0.022254
0.017461
0.040553
0.090667
0.035518
0.069006
0.054910
0.012797
0.002311
0.032636
0.009387
0.065903
0.058576
0.008811
0.012311
0.035052
0.038991
0.042839
0.084921
0.041077
0.077475
0.030290
0.039262
0.044180
0.027734
0.034192
0.008018
0.031816
0.011282
0.022728
0.087380
0.006472
0.003515
0.008182
0.007812
0.066734
0.078848
0.091921
0.081262
0.100036
0.029903
0.035861
0.052695
0.011763
0.009718
0.017073
0.053291
0.061038
0.097869
0.067771
0.095435
0.044331
0.009053
0.019888
0.015806
0.035219
0.019286
0.031589
0.044494
0.014688
0.019899
0.043974
0.043178
0.050128
0.090447
0.054408
0.092619
0.050361
0.083673
0.088061
0.094400
0.012484
0.010508
0.083281
0.007083
0.033466
0.011291
0.002184
0.018862
0.011360
0.025758
0.054753
0.007593
0.014208
0.011563
0.013476
0.003972
0.000845
0.008080
0.022108
0.004629
0.028666
0.096947
0.128317
0.073009
0.120373
0.012474
0.005978
0.094583
0.047630
0.036373
0.046906
0.056513
0.081536
0.014311
0.002627
0.020166
0.040156
0.087250
0.046971
0.066107
0.010299
0.049899
0.014934
0.017408
0.020549
0.067454
0.021499
0.043079
0.079490
0.057677
0.048199
0.031307
0.017826
0.010668
0.011905
0.008419
0.067394
0.044380
0.056481
0.045106
0.036868
0.036639
0.076836
0.025261
0.008101
0.040149
0.019019
0.014938
0.008695
0.036289
0.065815
0.063010
0.101058
0.046284
0.061895
0.012107
0.038209
0.083199
0.024423
0.087342
0.066770
0.042373
0.024840
0.068567
0.070836
0.013049
0.008230
0.024777
0.032342
0.021416
0.019436
0.004656
0.099489
0.035429
0.012041
0.008421
0.004465
0.018978
0.005334
0.027810
0.024562
0.046714
0.014332
0.009775
0.014272
0.013730
0.005098
0.022357
0.006066
0.013979
0.032011
0.079125
0.100058
0.083268
0.108512
0.020711
0.058155
0.015186
0.047198
0.014700
0.016598
0.025118
0.005920
0.008068
0.036288
0.056164
0.059419
0.028833
0.012169
0.008977
0.013482
0.013643
0.043181
0.015799
0.033187
0.021158
0.039947
0.014385
0.063600
0.065882
0.016840
0.020519
0.009054
0.012449
0.022620
0.020195
0.028947
0.021457
0.064850
0.069898
0.046169
0.050142
0.086559
0.041142
0.124900
0.062157
0.104626
0.083816
0.085838
0.063777
0.095609
0.057416
0.000889
0.008706
0.009540
0.010649
0.036643
0.042787
0.033150
0.013859
0.005493
0.083777
0.048741
0.087337
0.052025
0.052695
0.041728
0.017822
0.054099
0.022245
0.023734
0.014076
0.006497
0.082286
0.008703
0.008786
0.019155
0.011977
0.043297
0.093824
0.098356
0.056273
0.060811
0.042350
0.115960
0.094260
0.052038
0.003671
0.045581
0.092707
0.061322
0.025159
0.010023
0.117594
0.007019
0.059136
0.099831
0.098659
0.130741
0.126517
0.141428
0.080915
0.080597
0.106278
0.106126
0.007454
0.108275
0.100389
0.107703
0.091439
0.109209
0.113410
0.114093
0.111303
0.112304
0.077893
0.021944
0.097546
0.050821
0.063802
0.087142
0.102885
0.041270
0.007291
0.037462
0.020672
0.033442
0.030864
0.009067
0.009874
0.002165
0.027684
0.017298
0.017674
0.020823
0.024775
0.012866
0.013588
0.026098
0.003553
0.026079
0.022543
0.077450
0.073419
0.074727
0.022714
0.027577
0.061561
0.005514
0.033130
0.011504
0.013454
0.012121
0.008461
0.021683
0.050045
0.047899
0.070790
0.054447
0.073050
0.088292
0.043566
0.058677
0.095086
0.009839
0.010880
0.042987
0.019812
0.015820
0.011441
0.009464
0.010228
0.040268
0.029042
0.040614
0.028900
0.027868
0.068263
0.027638
0.034020
0.011901
0.016418
0.044816
0.049330
0.052900
0.053402
0.009939
0.013625
0.004399
0.012262
0.056881
0.037492
0.013177
0.021208
0.027306
0.014028
0.041513
0.059562
0.061401
0.044435
0.041028
0.052715
0.070851
0.062642
0.005200
0.014091
0.030791
0.004618
0.038808
0.039796
0.086797
0.074131
0.113599
0.054083
0.070569
0.102844
0.009125
0.046276
0.011981
0.023885
0.058858
0.015746
0.008957
0.041738
0.014329
0.004239
0.006626
0.053992
0.048086
0.008553
0.060767
0.092059
0.065334
0.098233
0.019014
0.011172
0.004777
0.009359
0.020825
0.042400
0.018097
0.009018
0.007127
0.014435
0.016470
0.038871
0.013303
0.017488
0.006944
0.022187
0.005009
0.029831
0.019426
0.024167
0.070830
0.079862
0.044690
0.057118
0.014688
0.022790
0.012697
0.012661
0.041002
0.023224
0.103877
0.046199
0.059584
0.075330
0.020591
0.015078
0.067523
0.047927
0.073382
0.044003
0.080913
0.074951
0.080539
0.084691
0.075376
0.096278
0.077950
0.109007
0.015244
0.015576
0.045017
0.060355
0.019820
0.035434
0.027439
0.066287
0.073400
0.080332
0.026593
0.035459
0.006580
0.005289
0.004199
0.015107
0.070977
0.012488
0.027847
0.043786
0.019567
0.007975
0.012889
0.019102
0.079377
0.023185
0.079595
0.066854
0.020672
0.047212
0.075676
0.010924
0.022166
0.039124
0.017814
0.013004
0.033618
0.007651
0.024698
0.020013
0.054353
0.034400
0.032802
0.028295
0.031957
0.051939
0.038440
0.005359
0.014320
0.057016
0.116338
0.072990
0.125398
0.094936
0.030843
0.023633
0.016408
0.028150
0.008631
0.010109
0.019059
0.010435
0.019481
0.030696
0.023674
0.029156
0.023113
0.019378
0.041788
0.088951
0.035688
0.068831
0.054159
0.013194
0.002731
0.066312
0.058349
0.010232
0.012913
0.035181
0.039223
0.041369
0.085888
0.040894
0.078752
0.030827
0.039585
0.042139
0.026790
0.033478
0.009140
0.033284
0.011680
0.021303
0.088536
0.006932
0.005425
0.008374
0.007986
0.066520
0.080411
0.092839
0.081491
0.100078
0.012473
0.029082
0.035167
0.052361
0.012065
0.010080
0.053316
0.025613
0.009503
0.062900
0.098878
0.065389
0.096474
0.044828
0.005939
0.018939
0.016424
0.035380
0.018839
0.033640
0.043925
0.020304
0.013859
0.044430
0.044841
0.049393
0.090873
0.053817
0.093656
0.049725
0.083187
0.088286
0.094347
0.083055
0.012886
0.020308
0.036349
0.006369
0.032845
0.031341
0.011722
0.002972
0.019337
0.026589
0.011835
0.008247
0.025837
0.053894
0.007790
0.014746
0.011876
0.013604
0.002409
0.005295
0.007873
0.003340
0.028863
0.097193
0.127938
0.073783
0.124199
0.004852
0.013022
0.092992
0.048472
0.036455
0.046998
0.055941
0.080606
0.013483
0.007964
0.024699
0.039316
0.085635
0.046717
0.068972
0.012764
0.048570
0.015231
0.017505
0.021928
0.067055
0.021520
0.043180
0.080460
0.057176
0.049167
0.034054
0.012280
0.008671
0.066401
0.045382
0.057492
0.045638
0.036922
0.034842
0.077214
0.017794
0.014571
0.007977
0.035690
0.013074
0.066737
0.063574
0.101634
0.047761
0.062629
0.001776
0.036370
0.083336
0.022030
0.087382
0.066489
0.042178
0.025348
0.069048
0.070344
0.008672
0.008751
0.023240
0.011856
0.033377
0.021671
0.011471
0.020028
0.004310
0.102055
0.006319
0.006008
0.017818
0.035863
0.018762
0.023774
0.045147
0.011760
0.020542
0.014545
0.013080
0.016745
0.005025
0.014735
0.006230
0.080630
0.101020
0.084369
0.108676
0.020571
0.057812
0.022708
0.014150
0.048232
0.015257
0.016698
0.026484
0.008057
0.006623
0.035244
0.008166
0.057532
0.061034
0.028504
0.011920
0.013528
0.014224
0.043022
0.017119
0.032659
0.021760
0.033673
0.013102
0.064490
0.066212
0.017072
0.023455
0.010460
0.012696
0.008749
0.022708
0.029088
0.021117
0.063790
0.068726
0.047148
0.050657
0.085868
0.042056
0.124192
0.063005
0.104724
0.085801
0.085321
0.062257
0.094998
0.056907
0.003025
0.009107
0.009208
0.036711
0.043541
0.034633
0.034451
0.007837
0.014438
0.005700
0.081978
0.048215
0.088362
0.050287
0.051778
0.041451
0.016807
0.054557
0.022280
0.022969
0.014243
0.006401
0.083196
0.008824
0.018483
0.009747
0.042808
0.043071
0.049043
0.081677
0.086620
0.002057
0.100717
0.133639
0.100914
0.056569
0.007548
0.085338
0.053915
0.011206
0.030118
0.107789
0.040385
0.104252
0.079862
0.104929
0.058576
0.149637
0.140136
