# vtk DataFile Version 2.0
Unstructured Grid Example
ASCII
DATASET UNSTRUCTURED_GRID
POINTS 1221 float
0.026881 -0.026478 -0.002835 
0.973190 -0.026827 -0.000348 
0.973210 1.026750 -0.000110 
0.027016 1.026991 -0.000128 
0.026596 -0.027155 0.047152 
0.973308 -0.026822 0.049663 
0.973176 1.026763 0.049881 
0.026758 1.026590 0.049875 
0.022369 0.023200 0.047812 
0.017962 0.074259 0.048395 
0.013542 0.125856 0.048975 
0.009442 0.178103 0.049586 
0.005351 0.230854 0.049782 
0.001845 0.284181 0.049615 
-0.001069 0.337704 0.049549 
-0.003153 0.391600 0.049501 
-0.004528 0.445824 0.049270 
-0.004975 0.500148 0.049043 
-0.004445 0.554512 0.048885 
-0.003074 0.608604 0.048763 
-0.000922 0.662674 0.048495 
0.002066 0.716191 0.048370 
0.005648 0.769238 0.048448 
0.009601 0.821716 0.048463 
0.013908 0.873883 0.048618 
0.018221 0.925376 0.048935 
0.022592 0.976265 0.049420 
0.022682 0.023871 -0.002061 
0.018162 0.074888 -0.001176 
0.013698 0.126478 -0.000362 
0.009414 0.178599 0.000357 
0.005572 0.231000 0.000839 
0.001975 0.284042 0.001080 
-0.000912 0.337725 0.001073 
-0.002956 0.391515 0.001059 
-0.004119 0.445670 0.000829 
-0.004819 0.499983 0.000828 
-0.004219 0.554370 0.000522 
-0.002880 0.608311 0.000308 
-0.000793 0.662320 0.000109 
0.002258 0.716070 -0.000350 
0.005713 0.769110 -0.000582 
0.009825 0.821849 -0.000759 
0.014007 0.873931 -0.000750 
0.018397 0.925572 -0.000654 
0.022879 0.976642 -0.000498 
0.026720 -0.026782 0.022170 
0.026860 1.026751 0.024873 
0.076274 -0.022985 0.047515 
0.125299 -0.018422 0.048026 
0.173555 -0.013891 0.048712 
0.221345 -0.009595 0.049412 
0.268771 -0.005574 0.050045 
0.315803 -0.002008 0.050738 
0.362176 0.000834 0.051237 
0.408332 0.003163 0.051619 
0.454283 0.004538 0.051839 
0.499987 0.005015 0.051943 
0.545638 0.004490 0.051684 
0.591693 0.003056 0.051189 
0.637666 0.000877 0.050845 
0.683997 -0.002095 0.050373 
0.731004 -0.005673 0.050119 
0.778240 -0.009687 0.049904 
0.826156 -0.013843 0.050018 
0.874633 -0.018200 0.049968 
0.923642 -0.022599 0.049822 
0.076559 -0.022243 -0.002588 
0.125578 -0.017812 -0.002353 
0.174026 -0.013506 -0.002129 
0.221756 -0.009446 -0.001427 
0.269185 -0.005529 -0.000946 
0.316233 -0.001958 -0.000654 
0.362443 0.000877 -0.000235 
0.408505 0.003018 0.000044 
0.454333 0.004299 0.000184 
0.499927 0.004637 0.000120 
0.545425 0.004128 0.000006 
0.591469 0.002752 -0.000232 
0.637630 0.000836 -0.000721 
0.683898 -0.001958 -0.000889 
0.730770 -0.005438 -0.001057 
0.778344 -0.009512 -0.000864 
0.826242 -0.013883 -0.000559 
0.874645 -0.018175 -0.000407 
0.923573 -0.022623 -0.000296 
0.973279 -0.026809 0.024653 
0.977521 0.023494 0.049607 
0.981955 0.074463 0.049504 
0.986431 0.125993 0.049408 
0.990536 0.178209 0.049591 
0.994557 0.230835 0.049744 
0.998014 0.283791 0.049910 
1.000934 0.337570 0.049868 
1.003085 0.391568 0.050097 
1.004345 0.445682 0.050223 
1.004731 0.500033 0.050300 
1.004235 0.554449 0.050378 
1.002870 0.608561 0.050480 
1.000709 0.662824 0.050329 
0.997559 0.716255 0.050371 
0.994044 0.769256 0.050257 
0.990183 0.821890 0.050071 
0.985936 0.873972 0.049869 
0.981719 0.925432 0.049788 
0.977297 0.976386 0.049840 
0.977362 0.023532 -0.000276 
0.981931 0.074526 -0.000079 
0.986292 0.126201 0.000136 
0.990533 0.178481 0.000463 
0.994553 0.231080 0.000767 
0.998077 0.284056 0.001121 
1.000881 0.337908 0.001439 
1.003175 0.391710 0.001699 
1.004541 0.445823 0.001837 
1.004941 0.500159 0.002087 
1.004368 0.554483 0.002027 
1.003049 0.608576 0.002162 
1.000882 0.662448 0.001916 
0.997934 0.716098 0.001486 
0.994452 0.769012 0.001243 
0.990413 0.821570 0.000861 
0.986122 0.873778 0.000469 
0.981664 0.925378 0.000081 
0.977357 0.976382 -0.000034 
0.973220 1.026729 0.024875 
0.923464 1.022611 0.049867 
0.874466 1.018175 0.049969 
0.826145 1.013719 0.050193 
0.778257 1.009609 0.050334 
0.730965 1.005584 0.050341 
0.684041 1.002222 0.050493 
0.637713 0.999405 0.050716 
0.591582 0.997007 0.051075 
0.545691 0.995648 0.051374 
0.500119 0.995148 0.052007 
0.454398 0.995508 0.052405 
0.408321 0.996763 0.052533 
0.362375 0.998919 0.052505 
0.315981 1.002049 0.052208 
0.268927 1.005471 0.051946 
0.221502 1.009380 0.051524 
0.173827 1.013493 0.051164 
0.125352 1.018077 0.050615 
0.076398 1.022408 0.050168 
0.923551 1.022652 -0.000203 
0.874493 1.018101 -0.000440 
0.825965 1.013854 -0.000477 
0.778328 1.009622 -0.000615 
0.730933 1.005592 -0.000645 
0.683887 1.002156 -0.000741 
0.637529 0.999266 -0.000684 
0.591365 0.997098 -0.000487 
0.545404 0.995736 -0.000190 
0.499712 0.995416 0.000107 
0.454221 0.995930 0.000785 
0.408400 0.997318 0.001001 
0.362462 0.999434 0.000946 
0.316085 1.002144 0.000937 
0.269276 1.005688 0.000970 
0.222101 1.009788 0.000624 
0.174181 1.014030 0.000528 
0.125720 1.018288 0.000219 
0.076692 1.022846 0.000093 
0.051120 1.024840 0.018875 
0.046539 1.025060 0.035395 
0.948981 1.024773 0.018748 
0.953470 1.025124 0.035287 
0.483174 0.995504 0.026253 
0.754609 1.007698 0.024838 
0.660812 1.000722 0.024996 
0.523258 0.995524 0.025771 
0.707319 1.003847 0.024865 
0.614574 0.998176 0.025181 
0.101164 1.020413 0.025272 
0.245501 1.007484 0.026342 
0.568669 0.996453 0.025427 
0.197995 1.011664 0.025919 
0.149865 1.016024 0.025624 
0.850154 1.016015 0.024753 
0.802088 1.011686 0.024898 
0.385295 0.998029 0.026742 
0.892366 1.019899 0.024778 
0.292698 1.003692 0.026597 
0.339379 1.000519 0.026633 
0.431393 0.996275 0.026718 
0.500144 0.499967 0.049371 
0.290481 0.296385 0.051035 
0.709323 0.703469 0.049191 
0.710686 0.292343 0.049680 
0.289389 0.707662 0.049764 
0.501375 0.773363 0.050099 
0.792263 0.497889 0.049437 
0.499563 0.231172 0.050579 
0.216335 0.502792 0.050175 
0.176374 0.162150 0.050120 
0.822710 0.161318 0.049928 
0.821910 0.839427 0.049795 
0.177360 0.838511 0.049846 
0.565324 0.635785 0.049004 
0.434805 0.364129 0.050393 
0.647244 0.439190 0.049027 
0.348633 0.565452 0.049774 
0.635437 0.842152 0.050022 
0.364935 0.158372 0.050906 
0.146484 0.356218 0.050468 
0.851405 0.355860 0.049793 
0.850726 0.645807 0.049688 
0.637185 0.158164 0.050278 
0.362938 0.841642 0.050909 
0.148990 0.639156 0.049388 
0.683633 0.580009 0.048852 
0.561937 0.336357 0.049786 
0.438210 0.663603 0.049476 
0.316292 0.421739 0.050505 
0.532374 0.874363 0.050767 
0.466742 0.125495 0.051136 
0.889810 0.464207 0.049943 
0.112161 0.464198 0.049879 
0.733153 0.899283 0.050135 
0.110193 0.247646 0.050210 
0.269853 0.095096 0.050290 
0.893932 0.244512 0.049936 
0.887571 0.747404 0.049882 
0.726636 0.108436 0.049898 
0.273236 0.891319 0.051012 
0.112392 0.748911 0.048983 
0.601135 0.733918 0.049360 
0.398807 0.265916 0.050951 
0.751385 0.404743 0.049328 
0.245561 0.597869 0.049706 
0.602130 0.520168 0.048896 
0.394302 0.475847 0.050003 
0.611839 0.259804 0.049879 
0.388110 0.739964 0.050064 
0.114432 0.077875 0.048882 
0.885598 0.078062 0.049865 
0.888337 0.919293 0.049891 
0.115436 0.921876 0.049837 
0.440080 0.896207 0.051255 
0.909735 0.566558 0.050219 
0.559963 0.103695 0.050843 
0.090040 0.566471 0.049340 
0.262350 0.201448 0.050724 
0.737898 0.798059 0.049711 
0.796382 0.254391 0.049863 
0.210050 0.748833 0.049672 
0.195625 0.274958 0.050831 
0.798882 0.719463 0.049480 
0.711468 0.207647 0.049854 
0.288481 0.792283 0.050431 
0.502289 0.415303 0.049732 
0.497255 0.584894 0.049218 
0.235715 0.364826 0.050838 
0.764175 0.634885 0.049289 
0.695961 0.500728 0.048970 
0.649106 0.348756 0.049448 
0.302354 0.504885 0.050207 
0.351018 0.651206 0.049659 
0.089289 0.167483 0.049666 
0.192456 0.074470 0.049454 
0.801836 0.928400 0.050013 
0.909995 0.166577 0.049631 
0.907536 0.836671 0.049961 
0.805442 0.073222 0.049921 
0.090112 0.833333 0.048928 
0.200433 0.922884 0.050674 
0.655034 0.652063 0.049027 
0.344972 0.347850 0.050853 
0.514287 0.689846 0.049384 
0.485850 0.310031 0.050294 
0.604078 0.912244 0.050594 
0.395579 0.088003 0.051167 
0.073047 0.388651 0.050068 
0.922138 0.383822 0.050103 
0.927195 0.669738 0.050340 
0.651440 0.077413 0.050398 
0.348826 0.922445 0.051571 
0.072181 0.670697 0.048971 
0.432773 0.814305 0.050698 
0.828255 0.567432 0.049660 
0.567099 0.185261 0.050483 
0.172188 0.568471 0.049611 
0.183135 0.430227 0.050472 
0.572057 0.811056 0.050052 
0.428349 0.186124 0.050928 
0.828734 0.425294 0.049744 
0.568016 0.459038 0.049219 
0.433056 0.540592 0.049579 
0.777869 0.329785 0.049583 
0.221936 0.669759 0.049437 
0.665713 0.777578 0.049474 
0.334949 0.221913 0.050927 
0.666994 0.929178 0.050403 
0.067427 0.307310 0.050167 
0.332894 0.070855 0.050729 
0.931673 0.312277 0.049950 
0.752661 0.559516 0.049191 
0.447681 0.729251 0.049874 
0.552248 0.270387 0.050163 
0.617683 0.592015 0.048874 
0.382493 0.408688 0.050452 
0.251646 0.443479 0.050548 
0.588161 0.396369 0.049414 
0.412047 0.603587 0.049545 
0.448994 0.430706 0.049969 
0.550419 0.569452 0.049031 
0.485726 0.927819 0.051317 
0.941400 0.516218 0.050284 
0.514364 0.072249 0.051301 
0.058382 0.516229 0.049461 
0.500172 0.830292 0.050662 
0.845981 0.507615 0.049810 
0.500373 0.160280 0.050801 
0.145363 0.501239 0.049870 
0.690751 0.841347 0.049939 
0.309649 0.158293 0.050663 
0.843794 0.296927 0.049894 
0.148296 0.708628 0.049191 
0.162974 0.223634 0.050353 
0.837995 0.781082 0.049729 
0.765403 0.154204 0.049890 
0.234592 0.845581 0.050409 
0.669139 0.241764 0.049827 
0.330893 0.758193 0.050295 
0.701087 0.357522 0.049349 
0.298965 0.642484 0.049665 
0.944078 0.613476 0.050385 
0.599778 0.065009 0.050769 
0.400435 0.934819 0.051880 
0.055643 0.613512 0.049035 
0.706344 0.434177 0.049131 
0.297807 0.557910 0.049893 
0.075841 0.032202 0.048227 
0.924082 0.032536 0.049796 
0.924236 0.967183 0.049815 
0.076111 0.967266 0.049769 
0.756572 0.952050 0.050168 
0.061069 0.216560 0.049892 
0.242765 0.048120 0.049868 
0.938952 0.787812 0.049949 
0.755593 0.048720 0.050090 
0.244853 0.950597 0.051410 
0.940533 0.210786 0.049834 
0.060937 0.787793 0.048640 
0.227709 0.155700 0.050295 
0.766956 0.851691 0.049882 
0.843326 0.216401 0.049996 
0.159696 0.782650 0.049439 
0.549576 0.941917 0.050963 
[...]
POINT_DATA 1221
SCALARS u float 1
LOOKUP_TABLE default
0.382270
0.383188
0.382478
0.385816
0.385080
0.382315
0.382813
0.381111
0.353367
0.317522
0.279868
0.240947
0.200856
0.160949
0.124772
0.090786
0.062663
0.051206
0.064971
0.093143
0.129281
0.165717
0.203162
0.240382
0.279567
0.315792
0.350061
0.350178
0.313328
0.275022
0.236230
0.200220
0.162813
0.124824
0.091407
0.060957
0.049397
0.061593
0.088921
0.124725
0.163983
0.201591
0.242149
0.280241
0.318331
0.354819
0.383277
0.382991
0.353574
0.316806
0.276575
0.236500
0.197823
0.161109
0.123937
0.091517
0.065720
0.054337
0.065487
0.090223
0.125213
0.163102
0.200295
0.240637
0.278551
0.315420
0.350773
0.350964
0.315788
0.279287
0.240056
0.201936
0.165319
0.126041
0.091175
0.061694
0.046866
0.062257
0.090589
0.125468
0.164116
0.202179
0.239123
0.278056
0.315195
0.351463
0.382428
0.351137
0.315948
0.278662
0.240048
0.201294
0.164984
0.125937
0.090714
0.061928
0.047893
0.062173
0.091344
0.129802
0.166101
0.203654
0.242376
0.280790
0.316430
0.351672
0.351877
0.315528
0.277474
0.237561
0.199060
0.162643
0.123350
0.091311
0.065035
0.054212
0.066463
0.094516
0.127555
0.164654
0.200483
0.238633
0.278191
0.316310
0.351242
0.382264
0.352217
0.316643
0.278026
0.240186
0.200438
0.162862
0.124490
0.090915
0.063414
0.053060
0.067999
0.093759
0.128025
0.164296
0.200010
0.237501
0.276891
0.314635
0.349822
0.351821
0.316015
0.280312
0.239635
0.200844
0.164411
0.126398
0.092164
0.063369
0.046415
0.059766
0.089655
0.126391
0.164214
0.203279
0.244286
0.282487
0.318843
0.354958
0.369281
0.370297
0.368075
0.370674
0.049549
0.220206
0.143520
0.052297
0.182810
0.106948
0.335270
0.220903
0.074168
0.260660
0.298921
0.298656
0.259846
0.107352
0.330528
0.183365
0.146294
0.076740
0.006527
0.025760
0.024706
0.023081
0.022413
0.081336
0.079107
0.080283
0.080075
0.119154
0.118918
0.120338
0.118213
0.052685
0.050635
0.052027
0.050564
0.064466
0.063534
0.065674
0.064109
0.063837
0.063638
0.066489
0.065363
0.057300
0.057383
0.057671
0.057103
0.078880
0.079307
0.077380
0.079563
0.115998
0.109552
0.116662
0.116049
0.106821
0.106848
0.105639
0.107690
0.062049
0.060813
0.062441
0.061854
0.040150
0.038635
0.059107
0.059517
0.241379
0.239563
0.241188
0.238057
0.077814
0.075513
0.076173
0.077411
0.038875
0.040722
0.039072
0.035777
0.041775
0.035088
0.033746
0.033738
0.034292
0.035699
0.052766
0.051460
0.065526
0.047456
0.064872
0.046374
0.184493
0.184669
0.184545
0.184839
0.186167
0.184425
0.184876
0.176179
0.047711
0.046551
0.067959
0.066463
0.079667
0.080086
0.080963
0.079811
0.096105
0.094687
0.096662
0.096829
0.077540
0.075127
0.075911
0.076284
0.074877
0.075219
0.074655
0.073545
0.030770
0.027876
0.039319
0.039270
0.041245
0.040379
0.105248
0.107534
0.103743
0.105769
0.070779
0.072237
0.071391
0.047352
0.045186
0.070454
0.044942
0.043889
0.031443
0.034556
0.071317
0.068602
0.071847
0.070944
0.083291
0.081254
0.081634
0.082721
0.061812
0.060252
0.061349
0.066815
0.083877
0.089251
0.087725
0.086836
0.037229
0.037632
0.046498
0.045651
0.083585
0.082959
0.085317
0.084672
0.062763
0.061853
0.310060
0.307688
0.309041
0.306725
0.174487
0.168215
0.172082
0.175104
0.173414
0.171149
0.175481
0.174569
0.090152
0.094390
0.093778
0.090182
0.070466
0.069723
0.072287
0.072355
0.064048
0.065269
0.065384
0.066480
0.075257
0.073985
0.051880
0.053566
0.075821
0.056408
0.055016
0.044325
0.043543
0.044932
0.043828
0.247764
0.249620
0.246640
0.247541
0.249814
0.251581
0.246232
0.254312
0.052619
0.054884
0.075453
0.062805
0.054747
0.054973
0.073488
0.074888
0.074938
0.075141
0.012930
0.008717
0.006476
0.006620
0.031185
0.028128
0.060707
0.060282
0.060181
0.135782
0.134740
0.137356
0.135060
0.177739
0.176178
0.178111
0.173903
0.065056
0.062997
0.054440
0.049402
0.067874
0.070333
0.067932
0.066488
0.041641
0.041097
0.077195
0.075692
0.074893
0.076560
0.062290
0.023584
0.019613
0.052996
0.051018
0.048654
0.045794
0.046719
0.049831
0.139546
0.079427
0.079210
0.079122
0.073673
0.070055
0.071401
0.071435
0.139495
0.137561
0.135668
0.079574
0.076736
0.078225
0.078934
0.081367
0.074382
0.073391
0.020288
0.019477
0.063682
0.141107
0.145192
0.139941
0.141438
0.143064
0.142473
0.141489
0.048299
0.047966
0.073198
0.079959
0.099009
0.099105
0.099189
0.099050
0.061114
0.066369
0.060162
0.185638
0.186137
0.184784
0.183999
0.129451
0.023351
0.023287
0.019021
0.018291
0.225882
0.224412
0.227381
0.225768
0.228258
0.226834
0.226950
0.222990
0.066213
0.064604
0.074315
0.074659
0.065393
0.020590
0.017438
0.051067
0.050330
0.077474
0.067808
0.041815
0.044044
0.075770
0.067373
0.066748
0.075181
0.050055
0.048286
0.051033
0.049524
0.123610
0.124872
0.122286
0.124342
0.071819
0.071587
0.076498
0.077174
0.074945
0.141841
0.141630
0.139367
0.079120
0.080815
0.078913
0.079517
0.080736
0.080670
0.079574
0.081037
0.077353
0.078635
0.079949
0.075076
0.071916
0.072395
0.073964
0.090817
0.139355
0.048908
0.048471
0.040040
0.057424
0.035458
0.034879
0.140345
0.138833
0.136687
0.076755
0.074940
0.075549
0.075371
0.048791
0.047200
0.070756
0.061162
0.065633
0.063680
0.063235
0.049295
0.053020
0.094267
0.093038
0.094820
0.079824
0.292899
0.293666
0.291600
0.292639
0.292106
0.293190
0.290655
0.291196
0.076597
0.050858
0.037482
0.075973
0.038871
0.038140
0.041937
0.040128
0.097092
0.039637
0.040029
0.081970
0.081417
0.081876
0.079101
0.078305
0.075503
0.075030
0.060645
0.058804
0.042037
0.044737
0.034162
0.060757
0.046909
0.046112
0.073517
0.126528
0.126584
0.125152
0.126543
0.069225
0.067849
0.068386
0.059055
0.063358
0.061505
0.062047
0.050377
0.051871
0.066870
0.036087
0.038599
0.138180
0.051313
0.037525
0.037488
0.041769
0.042419
0.041002
0.040634
0.039554
0.056063
0.056993
0.075519
0.063389
0.063420
0.062923
0.063201
0.064097
0.048667
0.069156
0.083010
0.080937
0.080137
0.063100
0.096681
0.094464
0.097290
0.081832
0.105426
0.102767
0.105604
0.105108
0.348335
0.345653
0.346892
0.345081
0.077466
0.078269
0.067088
0.052030
0.051806
0.033533
0.032808
0.059363
0.058310
0.075935
0.086734
0.086940
0.087494
0.213067
0.212286
0.214146
0.209962
0.020235
0.020161
0.030654
0.027113
0.121437
0.050821
0.073698
0.072096
0.073363
0.074469
0.367670
0.370473
0.367936
0.370323
0.050970
0.182184
0.221169
0.260910
0.298704
0.334602
0.219755
0.258631
0.298347
0.329880
0.143521
0.053006
0.073957
0.106255
0.077071
0.109495
0.183949
0.148230
0.367830
0.370129
0.368335
0.371905
0.051163
0.182283
0.297235
0.259863
0.334129
0.221077
0.258536
0.298052
0.219410
0.330493
0.106562
0.053692
0.142778
0.074938
0.105860
0.144510
0.181996
0.076247
0.006273
0.026365
0.025050
0.023028
0.021839
0.079167
0.081830
0.079675
0.079714
0.118263
0.120522
0.122637
0.123704
0.052423
0.050797
0.051420
0.051738
0.064039
0.063533
0.065803
0.064589
0.064903
0.064197
0.063760
0.064027
0.058729
0.057569
0.056634
0.058115
0.077817
0.076580
0.080116
0.079130
0.117653
0.110391
0.118557
0.113750
0.106977
0.106522
0.109083
0.109109
0.061187
0.062389
0.060975
0.059676
0.041043
0.039663
0.058199
0.058072
0.238849
0.240237
0.241403
0.243653
0.074776
0.078710
0.075046
0.075951
0.038929
0.040085
0.038865
0.037865
0.039580
0.035066
0.032834
0.033984
0.032873
0.036132
0.053543
0.053102
0.067286
0.066208
0.046993
0.047302
0.180997
0.184032
0.185658
0.182118
0.185704
0.184333
0.186354
0.180765
0.047697
0.067206
0.047026
0.065228
0.079838
0.078783
0.081036
0.080536
0.096581
0.095980
0.095586
0.095536
0.075354
0.078181
0.074996
0.075411
0.075105
0.073534
0.074305
0.076410
0.028809
0.029736
0.040359
0.040382
0.039278
0.041806
0.106377
0.107350
0.105817
0.105150
0.072558
0.070527
0.069874
0.047131
0.045911
0.071577
0.043039
0.044686
0.031349
0.034353
0.068056
0.072594
0.067685
0.069862
0.082375
0.084593
0.081557
0.081893
0.060034
0.061159
0.059460
0.066943
0.083849
0.088023
0.086551
0.090193
0.035975
0.035593
0.047675
0.046368
0.085797
0.083231
0.082401
0.082676
0.075471
0.073042
0.307145
0.307666
0.307918
0.310503
0.174553
0.167940
0.173223
0.172493
0.171411
0.176314
0.172202
0.173329
0.089251
0.094323
0.093048
0.093621
0.069651
0.072123
0.068833
0.072569
0.064436
0.065490
0.066435
0.066568
0.043801
0.073405
0.051120
0.053798
0.075214
0.073641
0.041063
0.044849
0.044803
0.055954
0.060971
0.245058
0.248669
0.246261
0.246747
0.248019
0.249120
0.250123
0.257812
0.057652
0.056091
0.061931
0.053885
0.054142
0.056831
0.056320
0.074747
0.073424
0.076610
0.010893
0.010088
0.006566
0.008208
0.030919
0.029457
0.060581
0.060377
0.062102
0.135226
0.135772
0.135428
0.136105
0.175683
0.176280
0.177909
0.178123
0.062986
0.063151
0.051151
0.050924
0.066164
0.068163
0.066587
0.069958
0.040876
0.040315
0.074731
0.076975
0.075342
0.075000
0.064066
0.022133
0.021150
0.049131
0.047265
0.047440
0.047253
0.135975
0.079192
0.078243
0.079181
0.067364
0.073842
0.069045
0.069580
0.138498
0.136946
0.139343
0.077009
0.079995
0.076138
0.078084
0.081400
0.072427
0.072567
0.018194
0.020855
0.064202
0.142581
0.145301
0.141710
0.139214
0.073697
0.142061
0.139854
0.143856
0.048889
0.046519
0.079743
0.062210
0.061753
0.099493
0.098712
0.099162
0.099255
0.061672
0.068407
0.061816
0.182908
0.186348
0.185265
0.188692
0.130409
0.023839
0.022678
0.020060
0.018302
0.222178
0.226484
0.224470
0.227320
0.225359
0.224222
0.228334
0.226963
0.072350
0.060658
0.052114
0.073763
0.077036
0.066707
0.074765
0.020515
0.017390
0.049191
0.048071
0.050833
0.048560
0.080271
0.068810
0.041229
0.044054
0.074204
0.066378
0.073677
0.065265
0.049806
0.051029
0.050190
0.123244
0.122818
0.123756
0.121961
0.071095
0.070326
0.076094
0.076036
0.075694
0.142175
0.139559
0.141896
0.078554
0.078350
0.080764
0.079422
0.080807
0.078953
0.080408
0.078600
0.080241
0.078460
0.078947
0.072711
0.074910
0.072561
0.072572
0.091084
0.135729
0.048183
0.046957
0.033722
0.035725
0.139832
0.138700
0.140778
0.077379
0.075467
0.074233
0.075857
0.065002
0.059917
0.060466
0.062282
0.049611
0.050791
0.052752
0.094329
0.094675
0.094866
0.078261
0.290231
0.290839
0.291054
0.291517
0.291227
0.292596
0.294286
0.295776
0.076859
0.057923
0.038413
0.074388
0.039987
0.039707
0.039515
0.077913
0.041180
0.042209
0.096192
0.080012
0.079875
0.080824
0.039920
0.081940
0.075028
0.077004
0.065328
0.052775
0.042191
0.044482
0.035994
0.035822
0.047706
0.046242
0.127362
0.126480
0.127997
0.125713
0.067956
0.070000
0.048225
0.068261
0.063856
0.059127
0.060139
0.058059
0.049142
0.049889
0.068679
0.036422
0.037244
0.038914
0.136250
0.051011
0.038199
0.040622
0.040985
0.039318
0.038820
0.042931
0.048457
0.048555
0.076203
0.062871
0.061620
0.063979
0.062211
0.062939
0.050654
0.049488
0.083954
0.079877
0.078421
0.065323
0.096982
0.096420
0.095914
0.081282
0.104739
0.104428
0.102361
0.103707
0.345465
0.346648
0.346554
0.349678
0.076212
0.076373
0.052613
0.052243
0.034021
0.032644
0.066549
0.065544
0.059284
0.057123
0.075922
0.087585
0.087178
0.086463
0.211814
0.212111
0.213541
0.214339
0.019493
0.018564
0.030061
0.027878
0.121554
0.071633
0.075295
0.071694
0.073781
0.369000
0.370170
0.367964
0.371833
0.049644
0.181831
0.222142
0.260907
0.299217
0.335771
0.219578
0.259061
0.296616
0.329604
0.142722
0.051990
0.106487
0.073368
0.107373
0.075857
0.183828
0.146781
