# vtk DataFile Version 2.0
Unstructured Grid Example
ASCII
DATASET UNSTRUCTURED_GRID
POINTS 1689 float
-0.001512 0.001665 -0.000485 
1.001735 0.001623 0.000424 
1.001566 0.998268 -0.000438 
-0.001653 0.998487 0.000361 
-0.001689 0.001507 0.099517 
1.001558 0.001742 0.100428 
1.001732 0.998429 0.099568 
-0.001510 0.998365 0.100354 
-0.005172 0.051471 0.099618 
-0.008608 0.101387 0.099730 
-0.011914 0.151283 0.099818 
-0.014956 0.201232 0.099926 
-0.017630 0.250940 0.100019 
-0.019991 0.300692 0.100059 
-0.021926 0.350580 0.100043 
-0.023352 0.400369 0.100064 
-0.024189 0.450221 0.100017 
-0.024419 0.499963 0.100076 
-0.024152 0.549829 0.100021 
-0.023295 0.599553 0.099978 
-0.021875 0.649390 0.100009 
-0.019923 0.699147 0.100016 
-0.017627 0.748867 0.100076 
-0.014855 0.798684 0.100158 
-0.011798 0.848601 0.100192 
-0.008481 0.898466 0.100255 
-0.005021 0.948393 0.100305 
-0.005023 0.051628 -0.000391 
-0.008478 0.101560 -0.000309 
-0.011795 0.151435 -0.000199 
-0.014882 0.201335 -0.000133 
-0.017579 0.251010 -0.000124 
-0.019901 0.300786 -0.000091 
-0.021905 0.350602 0.000007 
-0.023290 0.400354 -0.000054 
-0.024201 0.450196 0.000001 
-0.024384 0.499906 -0.000132 
-0.024136 0.549775 -0.000117 
-0.023429 0.599507 -0.000068 
-0.021898 0.649374 -0.000119 
-0.020046 0.699209 -0.000042 
-0.017776 0.749001 0.000033 
-0.014996 0.798792 0.000074 
-0.011953 0.848734 0.000162 
-0.008607 0.898584 0.000209 
-0.005177 0.948510 0.000296 
-0.001614 0.001596 0.049518 
-0.001587 0.998415 0.050357 
0.048341 0.004987 0.099595 
0.098430 0.008415 0.099678 
0.148580 0.011718 0.099778 
0.198698 0.014783 0.099842 
0.248937 0.017548 0.099913 
0.299242 0.019923 0.099940 
0.349380 0.021841 0.100001 
0.399627 0.023252 0.100000 
0.449838 0.024157 0.100006 
0.500017 0.024397 0.099956 
0.550265 0.024094 0.099899 
0.600517 0.023354 0.099899 
0.650660 0.021935 0.099855 
0.700797 0.019993 0.099853 
0.751050 0.017720 0.099923 
0.801223 0.014961 0.099977 
0.851296 0.011911 0.100062 
0.901454 0.008648 0.100191 
0.951526 0.005224 0.100320 
0.048528 0.005166 -0.000396 
0.098617 0.008596 -0.000284 
0.148731 0.011885 -0.000182 
0.198822 0.014984 -0.000085 
0.249043 0.017761 -0.000010 
0.299209 0.020072 0.000042 
0.349360 0.021948 0.000071 
0.399558 0.023347 0.000071 
0.449774 0.024217 0.000038 
0.500035 0.024380 0.000102 
0.550170 0.024094 0.000067 
0.600452 0.023423 -0.000063 
0.650644 0.021885 -0.000025 
0.700847 0.020044 -0.000047 
0.751024 0.017747 -0.000028 
0.801307 0.014923 0.000011 
0.851467 0.011855 0.000150 
0.901687 0.008570 0.000235 
0.951720 0.005133 0.000327 
1.001656 0.001689 0.050424 
1.005035 0.051711 0.100373 
1.008469 0.101621 0.100315 
1.011815 0.151459 0.100220 
1.014829 0.201377 0.100158 
1.017652 0.251129 0.100094 
1.019894 0.300786 0.100090 
1.021821 0.350646 0.100070 
1.023229 0.400394 0.100081 
1.024077 0.450143 0.100105 
1.024321 0.499921 0.100165 
1.024113 0.549778 0.100123 
1.023316 0.599543 0.100101 
1.021896 0.649387 0.100095 
1.020068 0.699184 0.100022 
1.017808 0.748951 0.099967 
1.014996 0.798745 0.099947 
1.011951 0.848663 0.099864 
1.008657 0.898537 0.099770 
1.005226 0.948461 0.099662 
1.005225 0.051582 0.000361 
1.008679 0.101496 0.000267 
1.011954 0.151346 0.000189 
1.015010 0.201272 0.000097 
1.017698 0.251039 0.000027 
1.020109 0.300802 -0.000012 
1.021962 0.350711 -0.000025 
1.023404 0.400604 -0.000022 
1.024196 0.450267 0.000005 
1.024415 0.499967 0.000009 
1.024189 0.549749 0.000030 
1.023373 0.599469 0.000012 
1.021920 0.649300 -0.000000 
1.020039 0.699166 -0.000059 
1.017711 0.748894 -0.000072 
1.014940 0.798698 -0.000129 
1.011853 0.848520 -0.000199 
1.008548 0.898380 -0.000283 
1.005092 0.948287 -0.000357 
1.001658 0.998342 0.049565 
0.951707 0.994924 0.099646 
0.901645 0.991465 0.099738 
0.851488 0.988181 0.099821 
0.801361 0.985107 0.099935 
0.751119 0.982246 0.100060 
0.700831 0.980026 0.100028 
0.650689 0.978135 0.100040 
0.600439 0.976754 0.100002 
0.550205 0.975842 0.099987 
0.500022 0.975637 0.099942 
0.449783 0.975932 0.099931 
0.399504 0.976696 0.099902 
0.349400 0.978120 0.099872 
0.299198 0.980043 0.099883 
0.248979 0.982310 0.099914 
0.198789 0.985035 0.099992 
0.148725 0.988059 0.100108 
0.098607 0.991427 0.100171 
0.048521 0.994864 0.100269 
0.951551 0.994745 -0.000341 
0.901461 0.991313 -0.000227 
0.851316 0.988070 -0.000095 
0.801165 0.984986 -0.000009 
0.751008 0.982221 0.000068 
0.700806 0.979883 0.000136 
0.650733 0.978040 0.000141 
0.600586 0.976627 0.000124 
0.550223 0.975770 0.000056 
0.500046 0.975543 0.000046 
0.449872 0.975866 0.000020 
0.399625 0.976655 -0.000006 
0.349388 0.978096 -0.000041 
0.299228 0.980004 -0.000020 
0.248911 0.982317 -0.000008 
0.198691 0.985077 0.000056 
0.148581 0.988173 0.000117 
0.098475 0.991509 0.000209 
0.048384 0.994967 0.000281 
0.675839 0.978892 0.050115 
0.575388 0.976099 0.048658 
0.776145 0.983581 0.051415 
0.474909 0.975564 0.050023 
0.876997 0.989716 0.050509 
0.374460 0.977283 0.051312 
0.274071 0.981036 0.049941 
0.173694 0.986558 0.050065 
0.070485 0.993369 0.050223 
0.931400 0.993430 0.049174 
0.424723 0.976140 0.052215 
0.525116 0.975566 0.047791 
0.826348 0.986532 0.052231 
0.726041 0.981032 0.052332 
0.625635 0.977242 0.047872 
0.223868 0.983638 0.047904 
0.324302 0.978934 0.052189 
0.123268 0.989773 0.052239 
0.031345 0.996082 0.065275 
0.969948 0.996137 0.064977 
0.971609 0.996213 0.031348 
0.029440 0.996263 0.031352 
0.500465 0.500125 0.099977 
0.280755 0.306825 0.100203 
0.718001 0.693349 0.100138 
0.722270 0.302975 0.099833 
0.277693 0.697050 0.099850 
0.500565 0.763490 0.099989 
0.800000 0.497989 0.099985 
0.499357 0.236473 0.100000 
0.204146 0.506186 0.100022 
0.157165 0.180965 0.100087 
0.842992 0.181046 0.099928 
0.841452 0.820457 0.100070 
0.157018 0.819009 0.099946 
0.569822 0.631257 0.100025 
0.430021 0.367131 0.100067 
0.656259 0.437558 0.099909 
0.343686 0.562462 0.099944 
0.643719 0.826953 0.100115 
0.355600 0.173121 0.100139 
0.131404 0.365824 0.100148 
0.866322 0.365964 0.099911 
0.866847 0.636410 0.100115 
0.646343 0.172838 0.099840 
0.353641 0.827167 0.099851 
0.133786 0.629578 0.099930 
0.690305 0.574796 0.100035 
0.309973 0.425636 0.100081 
0.564782 0.342224 0.099936 
0.435176 0.657813 0.099925 
0.535473 0.860093 0.100024 
0.464158 0.140116 0.100023 
0.905519 0.466797 0.100024 
0.096960 0.466489 0.100057 
0.750437 0.879164 0.100083 
0.091921 0.263166 0.100108 
0.253744 0.115081 0.100080 
0.913012 0.261767 0.099956 
0.906019 0.730608 0.100088 
0.743143 0.128467 0.099856 
0.256890 0.871583 0.099876 
0.094487 0.732246 0.099959 
0.606378 0.725791 0.100093 
0.396553 0.271993 0.100130 
0.755718 0.400009 0.099882 
0.243459 0.598500 0.099907 
0.609967 0.522675 0.099974 
0.389987 0.477364 0.100015 
0.618299 0.269900 0.099872 
0.381667 0.730130 0.099887 
0.089804 0.102287 0.099860 
0.910014 0.102409 0.100128 
0.913871 0.894551 0.099881 
0.090989 0.897630 0.100094 
0.435657 0.880550 0.099926 
0.926983 0.561371 0.100091 
0.564355 0.119445 0.099910 
0.073786 0.561224 0.099972 
0.248912 0.216107 0.100194 
0.751271 0.783221 0.100148 
0.812543 0.268191 0.099841 
0.193515 0.735919 0.099860 
0.181002 0.287454 0.100208 
0.814111 0.706556 0.100135 
0.723445 0.221579 0.099824 
0.276519 0.778460 0.099847 
0.503229 0.418075 0.099987 
0.496902 0.582057 0.099969 
0.225562 0.373418 0.100175 
0.775530 0.626302 0.100107 
0.708673 0.498432 0.099965 
0.292645 0.501806 0.100021 
0.650839 0.353160 0.099866 
0.349188 0.647259 0.099896 
0.067991 0.189427 0.099988 
0.172498 0.097923 0.099963 
0.823233 0.905132 0.099985 
0.931956 0.189161 0.100060 
0.929796 0.814523 0.099986 
0.826976 0.096789 0.099977 
0.068021 0.810909 0.100028 
0.178490 0.899737 0.099961 
0.660655 0.644737 0.100099 
0.516476 0.684822 0.100001 
0.340969 0.353513 0.100147 
0.484209 0.317547 0.100027 
0.611417 0.895401 0.100069 
0.388157 0.104768 0.100064 
0.055026 0.397271 0.100072 
0.939900 0.393525 0.099999 
0.946302 0.657635 0.100110 
0.664227 0.095664 0.099843 
0.335774 0.904385 0.099863 
0.054493 0.658245 0.099957 
0.428821 0.801357 0.099928 
0.842116 0.562014 0.100073 
0.571183 0.198668 0.099907 
0.158851 0.564227 0.099956 
0.171091 0.434837 0.100099 
0.576910 0.798971 0.100071 
0.422436 0.201341 0.100094 
0.838905 0.430271 0.099923 
0.570730 0.460887 0.099953 
0.429225 0.539188 0.099972 
0.673794 0.764742 0.100140 
0.790802 0.340335 0.099844 
0.207483 0.659623 0.099870 
0.326918 0.235492 0.100175 
0.680065 0.910176 0.100088 
0.048250 0.320491 0.100106 
0.319883 0.089747 0.100061 
0.950995 0.326600 0.099980 
0.762920 0.556045 0.100040 
0.444737 0.720764 0.099944 
0.555284 0.279255 0.099932 
0.622194 0.587108 0.100033 
0.377100 0.413473 0.100077 
0.241464 0.447039 0.100088 
0.592650 0.401813 0.099919 
0.407405 0.598253 0.099935 
0.447166 0.432731 0.100019 
0.552730 0.567344 0.099997 
0.485162 0.911389 0.099964 
0.959170 0.514336 0.100086 
0.514893 0.088618 0.099955 
0.040983 0.514281 0.100028 
0.500558 0.817459 0.099999 
0.857675 0.506073 0.100029 
0.499359 0.182624 0.100010 
0.131922 0.500517 0.100026 
0.702792 0.824970 0.100132 
0.297229 0.175044 0.100153 
0.860043 0.310893 0.099880 
0.132420 0.694617 0.099908 
0.145596 0.238487 0.100146 
0.856172 0.764988 0.100098 
0.783672 0.172634 0.099858 
0.216323 0.827420 0.099879 
0.677990 0.253486 0.099831 
0.321950 0.746523 0.099844 
0.720503 0.368025 0.099864 
0.279320 0.631758 0.099888 
0.963102 0.605406 0.100082 
0.609169 0.082517 0.099894 
0.390859 0.917521 0.099911 
0.037124 0.605539 0.099953 
0.758169 0.466965 0.099942 
0.248909 0.532313 0.099983 
0.048683 0.059211 0.099710 
0.951193 0.059450 0.100254 
0.951386 0.940693 0.099744 
0.048698 0.941300 0.100217 
0.776657 0.929157 0.100023 
0.039842 0.236422 0.100019 
0.223709 0.071395 0.099987 
0.960571 0.767262 0.100021 
0.775471 0.072148 0.099926 
0.224675 0.927057 0.099928 
0.961569 0.231681 0.100060 
0.039359 0.767214 0.100029 
0.211541 0.173273 0.100132 
0.784553 0.833372 0.100100 
0.862245 0.233653 0.099916 
0.141008 0.766125 0.099913 
0.552639 0.924161 0.100055 
[...]
POINT_DATA 1689
SCALARS u float 1
LOOKUP_TABLE default
0.006667
0.006995
0.006885
0.006578
0.006707
0.006887
0.006891
0.006533
0.015622
0.025281
0.034733
0.043494
0.051169
0.057973
0.063569
0.067686
0.070108
0.070773
0.070000
0.067526
0.063422
0.057796
0.051192
0.043224
0.034438
0.024989
0.015306
0.015346
0.024999
0.034440
0.043306
0.051033
0.057724
0.063510
0.067508
0.070141
0.070670
0.069956
0.067918
0.063493
0.058144
0.051599
0.043602
0.034840
0.025289
0.015637
0.006727
0.006583
0.015276
0.024826
0.034215
0.043013
0.050952
0.057784
0.063326
0.067398
0.070015
0.070709
0.069833
0.067702
0.063602
0.057992
0.051448
0.043504
0.034725
0.025421
0.015800
0.015611
0.025246
0.034644
0.043563
0.051551
0.058218
0.063637
0.067678
0.070190
0.070659
0.069832
0.067897
0.063454
0.058145
0.051520
0.043415
0.034622
0.025324
0.015717
0.006964
0.015450
0.025007
0.034509
0.043164
0.051263
0.057702
0.063271
0.067332
0.069781
0.070489
0.069888
0.067589
0.063484
0.058210
0.051701
0.043615
0.034854
0.025454
0.015820
0.015858
0.025535
0.034869
0.043659
0.051381
0.058328
0.063683
0.067852
0.070131
0.070759
0.070110
0.067758
0.063561
0.058128
0.051431
0.043466
0.034624
0.025227
0.015606
0.006911
0.015555
0.025204
0.034528
0.043342
0.051557
0.057940
0.063402
0.067383
0.070018
0.070611
0.069757
0.067556
0.063439
0.057889
0.051356
0.043513
0.034806
0.025177
0.015509
0.015911
0.025538
0.034788
0.043643
0.051612
0.058350
0.063681
0.067763
0.070228
0.070881
0.069948
0.067667
0.063508
0.057996
0.051345
0.043416
0.034526
0.025011
0.015342
0.061226
0.069279
0.047700
0.070820
0.030141
0.065859
0.055028
0.039140
0.019729
0.019619
0.069156
0.070815
0.039213
0.055058
0.065985
0.047534
0.061087
0.029920
0.012255
0.012260
0.011986
0.011819
0.000075
0.048528
0.048454
0.048883
0.048886
0.054735
0.054456
0.054645
0.053924
0.045959
0.046151
0.046138
0.046019
0.032365
0.032872
0.033092
0.033229
0.058894
0.058656
0.059214
0.058746
0.058825
0.058822
0.058819
0.058995
0.039196
0.039145
0.037144
0.037051
0.065578
0.065557
0.065540
0.065486
0.052275
0.052476
0.052438
0.052042
0.053134
0.053215
0.053045
0.052842
0.049105
0.049296
0.048759
0.048907
0.022718
0.022860
0.049789
0.049745
0.032288
0.032448
0.032629
0.032442
0.066377
0.066542
0.066366
0.066475
0.051646
0.051868
0.051504
0.051346
0.052637
0.052649
0.052512
0.052469
0.019369
0.019366
0.051144
0.051240
0.040378
0.040268
0.040496
0.040510
0.042768
0.042216
0.042910
0.042727
0.042629
0.042453
0.042705
0.043222
0.041199
0.041307
0.041194
0.040886
0.064994
0.064900
0.065708
0.064819
0.061545
0.061574
0.061434
0.061318
0.059013
0.059192
0.059087
0.058955
0.057672
0.058620
0.058559
0.058510
0.016934
0.017002
0.052840
0.052312
0.052500
0.052737
0.060081
0.059602
0.059874
0.059791
0.049202
0.047829
0.048008
0.030457
0.030550
0.048702
0.028522
0.028417
0.019036
0.018886
0.069151
0.069124
0.069160
0.069294
0.061700
0.061464
0.061683
0.062504
0.055392
0.055143
0.055063
0.055092
0.049998
0.049748
0.049765
0.049639
0.051323
0.051386
0.045683
0.045772
0.066182
0.066272
0.066155
0.066074
0.048504
0.047516
0.021595
0.021827
0.021928
0.021520
0.048611
0.049060
0.048253
0.048924
0.048843
0.048785
0.048389
0.048671
0.049235
0.049604
0.049447
0.049523
0.069031
0.068753
0.069065
0.068802
0.056054
0.055970
0.055920
0.055824
0.046807
0.049504
0.030737
0.030853
0.062259
0.049798
0.046718
0.046182
0.046295
0.040996
0.041791
0.034202
0.033470
0.034024
0.034177
0.033827
0.034030
0.033896
0.032721
0.033772
0.033717
0.055447
0.042325
0.042294
0.041258
0.041382
0.063040
0.062830
0.062921
0.050834
0.050916
0.050979
0.050863
0.050963
0.050855
0.055077
0.055320
0.054880
0.056543
0.056604
0.056258
0.056438
0.040629
0.040768
0.040884
0.040803
0.056076
0.056190
0.029265
0.029443
0.049646
0.049851
0.049817
0.049596
0.047015
0.047013
0.062976
0.062977
0.063001
0.062801
0.056370
0.011366
0.011499
0.054658
0.054599
0.054726
0.054715
0.045582
0.059283
0.059084
0.059007
0.068935
0.069058
0.068991
0.069059
0.045987
0.045924
0.045725
0.066592
0.066398
0.066484
0.066551
0.061062
0.053969
0.054003
0.010736
0.010791
0.056338
0.055805
0.055884
0.055475
0.055546
0.053418
0.045457
0.045331
0.045172
0.028427
0.028523
0.061723
0.039195
0.039381
0.064308
0.064410
0.064229
0.064158
0.046373
0.042874
0.046288
0.040003
0.040163
0.039996
0.039939
0.048274
0.050837
0.050915
0.051000
0.050980
0.040646
0.040202
0.040384
0.040529
0.040770
0.040657
0.040416
0.040190
0.058522
0.038442
0.038584
0.052797
0.048360
0.042371
0.048145
0.009989
0.010065
0.035209
0.034499
0.035200
0.034545
0.054697
0.052482
0.024968
0.024842
0.047755
0.041303
0.041453
0.047919
0.034396
0.036695
0.036858
0.060962
0.061062
0.061202
0.060926
0.053666
0.053678
0.059438
0.059309
0.059412
0.048113
0.047916
0.047893
0.061741
0.061691
0.061907
0.067563
0.067877
0.067597
0.067532
0.063115
0.063577
0.063107
0.063061
0.061377
0.061380
0.061499
0.061389
0.056623
0.048222
0.049877
0.049972
0.020774
0.020661
0.048391
0.048356
0.048136
0.053791
0.062021
0.061899
0.061842
0.070006
0.070204
0.070151
0.070223
0.055179
0.055122
0.055685
0.057362
0.057276
0.057186
0.056459
0.025861
0.025630
0.025849
0.026052
0.026082
0.026135
0.025772
0.025840
0.066172
0.036553
0.053018
0.066713
0.045436
0.045051
0.045177
0.056555
0.025484
0.025514
0.057060
0.057962
0.058065
0.058485
0.045288
0.057043
0.066789
0.066664
0.044468
0.044398
0.026942
0.026703
0.020276
0.020401
0.050020
0.050701
0.060699
0.060775
0.060553
0.060490
0.059239
0.059048
0.034319
0.059004
0.070195
0.070254
0.070499
0.070124
0.052965
0.053007
0.052807
0.053103
0.052961
0.053040
0.045288
0.055143
0.023743
0.023638
0.051208
0.051016
0.050880
0.051033
0.041098
0.041133
0.053402
0.052644
0.052692
0.052568
0.043665
0.043403
0.031628
0.031682
0.052438
0.052922
0.052675
0.052399
0.056363
0.056120
0.056011
0.058456
0.064439
0.064549
0.064384
0.064421
0.014738
0.014942
0.014989
0.014680
0.052518
0.052412
0.041807
0.041797
0.048785
0.048822
0.045999
0.046160
0.035053
0.035119
0.063119
0.062398
0.062162
0.062332
0.036886
0.037160
0.037194
0.037702
0.050293
0.050384
0.016106
0.016269
0.055218
0.068382
0.068420
0.068301
0.068425
0.039184
0.019804
0.054927
0.070716
0.065894
0.061148
0.069149
0.047754
0.030061
0.019631
0.070886
0.061153
0.047566
0.030076
0.068988
0.039375
0.054945
0.065886
0.012451
0.012360
0.011996
0.012071
0.039016
0.019626
0.055215
0.069154
0.070875
0.055173
0.065944
0.019942
0.039285
0.061254
0.069467
0.047432
0.029802
0.070770
0.047657
0.061246
0.030124
0.065949
0.012659
0.012262
0.011840
0.012170
0.000068
0.048503
0.048434
0.048919
0.048838
0.054564
0.054573
0.054554
0.053922
0.045949
0.046187
0.046046
0.046002
0.032483
0.032862
0.032923
0.033065
0.058861
0.058844
0.058991
0.058886
0.058684
0.058678
0.058491
0.059116
0.039287
0.039233
0.036891
0.036879
0.065520
0.065585
0.065598
0.065381
0.052426
0.052249
0.052607
0.052356
0.053045
0.053111
0.052945
0.053038
0.049011
0.049322
0.048741
0.048783
0.022637
0.022740
0.049761
0.049717
0.032338
0.032563
0.032490
0.032548
0.066328
0.066388
0.066257
0.066432
0.051727
0.051821
0.051524
0.051504
0.052436
0.052538
0.052390
0.052360
0.019204
0.019209
0.051097
0.051127
0.040053
0.040051
0.040507
0.040480
0.042479
0.042243
0.042967
0.042897
0.042349
0.042387
0.042861
0.043220
0.041063
0.041320
0.041125
0.040742
0.064935
0.064978
0.065438
0.064984
0.061449
0.061409
0.061338
0.061420
0.059082
0.059127
0.059055
0.058852
0.057521
0.058558
0.058614
0.058574
0.016881
0.017015
0.052806
0.052355
0.052531
0.052865
0.060216
0.059407
0.060130
0.060111
0.049199
0.047940
0.048014
0.030099
0.030260
0.048657
0.028443
0.028452
0.019070
0.018962
0.069201
0.069167
0.069222
0.069212
0.061618
0.061553
0.061742
0.062533
0.055381
0.055356
0.055249
0.055286
0.049907
0.049611
0.049691
0.049616
0.051369
0.051291
0.045718
0.045745
0.066034
0.066030
0.065946
0.066092
0.048473
0.047507
0.021465
0.021800
0.021858
0.021548
0.048726
0.048715
0.048513
0.048760
0.048735
0.048661
0.048562
0.048843
0.049283
0.049644
0.049616
0.049697
0.068925
0.068769
0.068966
0.068574
0.055942
0.055826
0.055765
0.055655
0.046654
0.049386
0.030486
0.030814
0.061903
0.049721
0.046736
0.046097
0.046216
0.040984
0.041735
0.033858
0.033575
0.034163
0.034115
0.033608
0.033743
0.034070
0.032652
0.033667
0.033520
0.055546
0.042462
0.042291
0.041190
0.041250
0.063020
0.062898
0.063068
0.050814
0.050784
0.050758
0.050884
0.050884
0.050761
0.055192
0.055268
0.055061
0.056394
0.056520
0.056395
0.056199
0.040516
0.040795
0.040807
0.040785
0.055947
0.056119
0.029402
0.029478
0.049611
0.049815
0.049809
0.049648
0.047032
0.046937
0.062751
0.062852
0.062890
0.062911
0.056313
0.011429
0.011530
0.054518
0.054524
0.054691
0.054582
0.045426
0.059338
0.059247
0.059189
0.069000
0.068991
0.068966
0.069080
0.045795
0.045919
0.045703
0.066556
0.066451
0.066549
0.066538
0.060861
0.053984
0.053962
0.010562
0.010688
0.056046
0.055960
0.055602
0.055795
0.055905
0.053047
0.045445
0.045493
0.045234
0.028400
0.028418
0.061657
0.039295
0.039408
0.064436
0.064162
0.064351
0.064453
0.046330
0.042789
0.046252
0.039826
0.040163
0.040082
0.039926
0.048405
0.050920
0.050866
0.050977
0.051069
0.040342
0.040511
0.040741
0.040633
0.040457
0.040505
0.040646
0.040077
0.058721
0.038443
0.038590
0.052804
0.048359
0.042297
0.048074
0.010032
0.010065
0.035248
0.034576
0.035306
0.034638
0.054764
0.052447
0.024950
0.024910
0.047784
0.041426
0.041404
0.047808
0.034331
0.036372
0.036588
0.060979
0.061047
0.061043
0.061091
0.053708
0.053628
0.059303
0.059225
0.059276
0.048085
0.048055
0.048026
0.061614
0.061682
0.061924
0.067506
0.067723
0.067668
0.067619
0.063003
0.063528
0.063062
0.063057
0.061339
0.061315
0.061392
0.061436
0.056469
0.047938
0.049822
0.049889
0.020542
0.020570
0.048236
0.048385
0.048125
0.053747
0.062001
0.062041
0.062005
0.070126
0.070147
0.070233
0.070110
0.055234
0.055164
0.055817
0.057298
0.057189
0.057168
0.056500
0.025540
0.025713
0.026003
0.026087
0.025924
0.025963
0.025791
0.025683
0.065935
0.036412
0.053195
0.066695
0.045332
0.045133
0.045192
0.056529
0.025517
0.025604
0.057286
0.057894
0.058069
0.058479
0.045356
0.057122
0.066711
0.066752
0.044388
0.044397
0.026947
0.026775
0.020417
0.020551
0.050118
0.050669
0.060929
0.060482
0.060813
0.060911
0.059207
0.059164
0.034279
0.059117
0.070231
0.070324
0.070374
0.070301
0.052912
0.052907
0.052841
0.053154
0.052981
0.053143
0.045286
0.055359
0.023607
0.023469
0.051168
0.050947
0.050777
0.051079
0.041173
0.041173
0.053188
0.052636
0.052582
0.052488
0.043473
0.043294
0.031521
0.031592
0.052566
0.052987
0.052939
0.052623
0.056397
0.056262
0.056274
0.058496
0.064399
0.064407
0.064486
0.064341
0.014735
0.015096
0.015038
0.014750
0.052495
0.052428
0.041626
0.041661
0.048818
0.048814
0.045917
0.046045
0.035121
0.034928
0.062891
0.062438
0.062466
0.062531
0.036758
0.037000
0.037036
0.037680
0.050466
0.050306
0.016222
0.016353
0.054830
0.068332
0.068364
0.068334
0.068244
0.047582
0.019763
0.061161
0.070905
0.055037
0.065933
0.039372
0.019664
0.038885
0.066083
0.071175
0.054903
0.047647
0.061154
0.029994
0.069191
0.069311
0.029786
0.012212
0.012367
0.011889
0.011800
0.052733
0.052528
0.039864
0.069124
0.067151
0.059698
0.058976
0.028480
0.032656
0.057969
0.046586
0.032828
0.035974
0.067067
0.063968
0.035602
0.025904
0.068312
0.066641
0.062587
0.069983
0.054617
0.042443
0.021733
0.069792
0.065971
0.049038
0.019505
0.027521
0.026090
0.035266
0.037724
0.069639
0.066132
0.064530
0.052955
0.052872
0.058250
0.040127
0.028090
0.062768
0.046963
0.033166
0.042070
0.021253
0.054447
0.054211
0.070093
0.063898
0.062440
0.068670
0.048426
0.059733
0.068979
0.066887
0.067932
0.027040
0.052852
0.060967
0.054709
0.048952
0.060097
0.049120
0.063789
0.065744
0.048620
0.053422
0.049675
0.013004
0.016589
0.057225
0.028251
0.024274
0.043314
0.047148
0.031871
0.046650
0.054796
0.042939
0.047465
0.055712
0.047141
0.053141
0.060613
0.049484
0.047646
0.051307
0.050262
0.055658
0.057157
0.025016
0.022033
0.046091
0.023240
0.051960
0.056777
0.063713
0.063339
0.051772
0.048421
0.056425
0.058739
0.032994
0.030306
0.055143
0.050906
0.041042
0.048794
0.049751
0.052461
0.053751
0.007356
0.006644
0.013557
0.055564
0.059394
0.063950
0.060041
0.051814
0.050167
0.054984
0.038830
0.045769
0.054254
0.059817
0.044056
0.046466
0.049281
0.059447
0.058571
0.060018
0.042196
0.068571
0.043856
0.045980
0.038754
0.066634
0.039696
0.065188
0.066753
0.041275
0.058076
0.043871
0.058406
0.025075
0.052779
0.055824
0.040106
0.036572
0.036761
0.050579
0.050625
0.046167
0.064279
0.057892
0.035231
0.054298
0.045194
0.041579
0.058000
0.019858
0.054585
0.038177
0.038815
0.038978
0.041033
0.059672
0.058306
0.025553
0.067152
0.067854
0.066925
0.038917
0.042054
0.053696
0.048014
0.041878
0.043472
0.042669
0.047269
0.049229
0.052509
0.048715
0.049177
0.035063
0.008861
0.054850
0.030697
0.040170
0.048005
0.062180
0.038163
0.021565
0.019302
0.062461
0.062023
0.060795
0.053893
0.014244
0.045813
0.053008
0.050009
0.054163
0.059207
0.052160
0.047513
0.047546
0.052610
0.061665
0.051921
0.032697
0.048236
0.046376
0.061082
0.058378
0.047296
0.047810
0.042142
0.040807
0.044105
0.029154
0.052310
0.052747
0.031090
0.028142
0.069325
0.048526
0.067264
0.058717
0.054497
0.042083
0.062162
0.064593
0.063674
0.059504
0.053993
0.048476
0.054584
0.042139
0.046890
0.041496
0.034807
0.064288
0.021523
0.015576
0.012633
0.017423
0.024409
0.067538
0.054819
0.058203
0.049430
0.062377
0.049588
0.056466
0.054536
0.058179
0.059293
0.061560
0.059960
0.058702
0.016885
0.025377
0.016154
0.035915
0.068160
0.048510
0.057981
0.029342
0.042407
0.063406
0.069172
0.052947
0.040672
0.034171
0.029513
0.057050
0.048777
0.055130
0.058714
0.050246
0.048954
0.050287
0.049668
0.052813
0.048362
0.049806
0.054144
0.062561
0.060470
0.040005
0.040948
0.041419
0.043922
0.045394
0.054364
0.033525
0.060741
0.038466
0.059206
0.069343
0.043659
0.052118
0.063771
0.062442
0.052479
0.042743
0.046736
0.044813
0.052087
0.049114
0.022026
0.068023
0.066961
0.066798
0.061485
0.048171
0.051274
0.052552
0.055684
0.041411
0.044244
0.050259
0.049475
0.050216
0.047368
0.049769
0.027281
0.032544
0.054675
0.033350
0.058425
0.046634
0.045586
0.052680
0.064562
0.064909
0.062612
0.057662
0.052532
0.056800
0.057208
0.043449
0.053394
0.054278
0.053300
0.060033
0.055926
0.053422
0.053826
0.052654
0.048583
0.034225
0.026623
0.034751
0.030497
0.062874
0.048103
0.049533
0.067926
0.051566
0.050918
0.051132
0.037365
0.064357
0.044403
0.039326
0.046278
0.051886
0.055230
0.057361
0.049366
0.049478
0.048528
0.065494
0.037972
0.051778
0.046307
0.053180
0.042436
0.043732
0.041454
0.033777
0.048811
0.035069
0.053923
0.051701
0.057225
0.054039
0.052638
0.063502
0.060351
0.058882
0.052379
0.063059
0.033020
0.043438
0.058608
0.063882
0.058383
0.049138
0.044658
0.049461
0.049118
0.050028
0.056272
0.056874
0.046098
0.048726
0.054227
0.033505
0.036114
0.036964
0.066253
0.066131
0.040347
0.036100
0.038426
0.068760
0.052609
0.056041
0.052503
0.039535
0.047130
0.052757
0.057566
0.032143
0.051713
0.048835
0.045621
0.050243
0.049599
0.057431
0.059762
0.041642
0.047702
0.062676
0.051859
0.057072
0.033693
0.026126
0.061476
0.051611
0.050370
0.051346
0.046788
0.052408
0.052691
0.004430
0.031221
0.037317
0.035919
0.064580
0.063243
0.065682
0.062421
0.060556
0.057270
0.063775
0.047046
0.053730
0.052739
0.052772
0.030610
0.022601
0.069451
0.040957
0.054178
0.052626
