# vtk DataFile Version 2.0
Unstructured Grid Example
ASCII
DATASET UNSTRUCTURED_GRID
POINTS 1221 float
-0.003226 -0.000244 0.020335 
0.999773 0.001140 -0.006517 
1.003358 1.000053 0.021089 
0.000995 0.998191 -0.012469 
0.000743 0.002725 0.070343 
1.002570 0.001094 0.043490 
0.998600 0.997522 0.071074 
-0.003153 0.999471 0.037531 
0.000887 0.052718 0.067031 
0.000735 0.102916 0.063252 
0.000734 0.152941 0.058983 
0.000539 0.202210 0.054883 
0.000129 0.251847 0.051591 
0.000136 0.301570 0.049122 
0.000169 0.351402 0.046910 
-0.000249 0.400976 0.044711 
-0.000465 0.450545 0.043097 
-0.000577 0.500095 0.042267 
-0.000860 0.549634 0.042242 
-0.001012 0.599361 0.042771 
-0.001288 0.649253 0.043267 
-0.001530 0.699300 0.043747 
-0.001730 0.749402 0.043712 
-0.001922 0.799458 0.042986 
-0.002105 0.849434 0.042000 
-0.002478 0.899490 0.040554 
-0.002890 0.949519 0.038988 
-0.002740 0.049711 0.017006 
-0.002391 0.099379 0.013168 
-0.001735 0.149265 0.009041 
-0.001185 0.199382 0.004697 
-0.000635 0.250026 0.001574 
-0.000381 0.299840 -0.000766 
-0.000139 0.349676 -0.003173 
0.000363 0.399765 -0.005322 
0.000754 0.450136 -0.006917 
0.001005 0.500076 -0.007737 
0.001209 0.550208 -0.007816 
0.001293 0.600086 -0.007243 
0.001438 0.649887 -0.006717 
0.001493 0.699596 -0.006299 
0.001525 0.749128 -0.006402 
0.001409 0.798774 -0.007007 
0.001221 0.848464 -0.008033 
0.001153 0.898273 -0.009418 
0.001153 0.948225 -0.011001 
-0.001246 0.001230 0.045275 
-0.001082 0.998837 0.012567 
0.050694 0.002329 0.066028 
0.100993 0.001803 0.060980 
0.151014 0.001124 0.055861 
0.200757 0.000609 0.051212 
0.250678 0.000351 0.047353 
0.300271 0.000049 0.044461 
0.349758 -0.000344 0.042250 
0.399438 -0.000555 0.041829 
0.449170 -0.000658 0.042566 
0.498974 -0.000707 0.044430 
0.548949 -0.000634 0.047186 
0.599155 -0.000476 0.050178 
0.649632 -0.000193 0.052943 
0.700382 -0.000036 0.054866 
0.751178 0.000293 0.055274 
0.801911 0.000477 0.054172 
0.852242 0.000703 0.052012 
0.902434 0.000811 0.049286 
0.952536 0.000961 0.046349 
0.046713 -0.000457 0.015976 
0.096575 -0.000238 0.010991 
0.147000 0.000217 0.006164 
0.197654 0.000204 0.001224 
0.247907 0.000096 -0.002594 
0.298179 0.000000 -0.005526 
0.348925 0.000138 -0.007594 
0.399775 0.000117 -0.008180 
0.450445 0.000089 -0.007360 
0.501024 0.000122 -0.005499 
0.551338 0.000105 -0.002791 
0.601451 0.000057 0.000228 
0.651478 -0.000055 0.002973 
0.701308 -0.000014 0.004901 
0.750723 0.000004 0.005359 
0.800171 0.000296 0.004123 
0.849864 0.000523 0.002041 
0.899769 0.000733 -0.000704 
0.949730 0.000967 -0.003622 
1.001169 0.001118 0.018504 
1.002350 0.051102 0.043617 
1.002052 0.101049 0.043806 
1.001855 0.150999 0.043856 
1.001720 0.200926 0.043856 
1.001567 0.250849 0.043848 
1.001322 0.300781 0.043741 
1.001118 0.350596 0.043783 
1.000932 0.400385 0.043895 
1.000725 0.450180 0.044204 
1.000493 0.499901 0.044733 
1.000387 0.549664 0.045525 
1.000033 0.599210 0.046710 
0.999708 0.648760 0.048898 
0.999206 0.698570 0.051194 
0.998810 0.747877 0.054338 
0.998854 0.797778 0.058070 
0.998761 0.847734 0.061862 
0.998602 0.897582 0.065147 
0.998554 0.947576 0.068288 
0.999661 0.051128 -0.006356 
0.999491 0.101100 -0.006213 
0.999400 0.150988 -0.006143 
0.999179 0.200902 -0.006170 
0.999005 0.250773 -0.006182 
0.998939 0.300625 -0.006275 
0.998894 0.350489 -0.006216 
0.998865 0.400425 -0.006155 
0.998907 0.450311 -0.005843 
0.999063 0.500219 -0.005321 
0.999138 0.550021 -0.004539 
0.999480 0.600125 -0.003300 
1.000056 0.650098 -0.001370 
1.000754 0.700200 0.001113 
1.001352 0.750545 0.004277 
1.001869 0.800615 0.008063 
1.002365 0.850462 0.011771 
1.002728 0.900187 0.015164 
1.003122 0.950144 0.018243 
1.000976 0.998791 0.046020 
0.948693 0.997794 0.066034 
0.898648 0.998354 0.060521 
0.848729 0.998749 0.055357 
0.798861 0.999132 0.050297 
0.748975 0.999460 0.045619 
0.699529 0.999654 0.042181 
0.649665 0.999908 0.039566 
0.600945 1.000802 0.038794 
0.551274 1.000781 0.040451 
0.501395 1.000792 0.043474 
0.451331 1.000787 0.047079 
0.401198 1.000561 0.050904 
0.350523 1.000329 0.054125 
0.299303 1.000324 0.055815 
0.248360 1.000112 0.055575 
0.197707 0.999959 0.053367 
0.147346 0.999810 0.050180 
0.097092 0.999671 0.046209 
0.046860 0.999638 0.041880 
0.953337 1.000108 0.015924 
0.903520 1.000182 0.010502 
0.853023 1.000131 0.005401 
0.803146 1.000146 0.000220 
0.752749 1.000198 -0.004351 
0.702043 1.000272 -0.007767 
0.651478 1.000308 -0.010485 
0.599810 0.999681 -0.011065 
0.549023 0.999783 -0.009457 
0.498493 0.999823 -0.006497 
0.448430 0.999815 -0.002914 
0.398260 0.999923 0.000962 
0.348375 0.999956 0.004245 
0.298992 0.999786 0.005948 
0.249803 0.999593 0.005557 
0.200374 0.999312 0.003416 
0.150580 0.998986 0.000173 
0.100923 0.998777 -0.003733 
0.050958 0.998468 -0.008134 
0.023722 0.998795 0.008515 
0.017861 0.999179 0.024654 
0.977233 0.999158 0.037517 
0.980223 0.998330 0.054504 
0.481532 1.000277 0.019784 
0.775910 0.999708 0.022832 
0.675651 1.000062 0.015688 
0.525757 1.000290 0.016777 
0.725791 0.999952 0.018687 
0.625611 1.000334 0.013603 
0.073947 0.999146 0.019072 
0.224105 0.999667 0.029721 
0.575334 1.000279 0.014376 
0.173997 0.999535 0.026883 
0.124010 0.999308 0.023295 
0.876136 0.999383 0.032851 
0.825943 0.999547 0.027797 
0.374545 1.000242 0.027681 
0.919475 0.999181 0.037610 
0.274109 0.999956 0.031041 
0.324261 1.000148 0.030340 
0.424735 1.000258 0.024036 
0.500117 0.499849 0.052739 
0.292742 0.294763 0.046189 
0.707585 0.705473 0.045693 
0.708780 0.290585 0.054871 
0.290696 0.709072 0.057227 
0.502229 0.782370 0.049029 
0.784450 0.498360 0.050834 
0.498754 0.222503 0.048313 
0.224065 0.502363 0.050053 
0.168751 0.171588 0.049317 
0.832207 0.170081 0.052604 
0.829171 0.830031 0.048407 
0.167502 0.830207 0.054472 
0.564126 0.641248 0.050780 
0.436103 0.358766 0.049492 
0.642216 0.437699 0.053486 
0.353467 0.566570 0.054311 
0.640041 0.847488 0.041363 
0.360499 0.153268 0.043672 
0.151302 0.360942 0.047007 
0.847539 0.360506 0.051051 
0.846155 0.641290 0.047813 
0.641106 0.153171 0.053315 
0.359030 0.846915 0.055659 
0.153070 0.634153 0.051348 
0.678156 0.581956 0.049762 
0.560229 0.330381 0.052153 
0.439704 0.669371 0.054337 
0.321930 0.420239 0.049464 
0.534626 0.882905 0.044108 
0.464336 0.117232 0.044866 
0.882704 0.465783 0.048502 
0.119488 0.465576 0.046313 
0.743454 0.896122 0.043921 
0.108062 0.259037 0.049016 
0.258897 0.098037 0.046069 
0.897834 0.256238 0.049326 
0.888924 0.736247 0.048614 
0.738034 0.110412 0.055415 
0.262090 0.889804 0.057229 
0.108866 0.737997 0.051455 
0.601227 0.740825 0.045854 
0.398636 0.259338 0.045999 
0.745417 0.404904 0.053483 
0.251318 0.597169 0.053914 
0.598431 0.520958 0.052362 
0.398087 0.474454 0.051977 
0.611371 0.253581 0.053201 
0.388869 0.746268 0.055841 
0.097989 0.096463 0.057125 
0.904199 0.095568 0.049040 
0.904270 0.901097 0.057009 
0.096414 0.905119 0.048031 
0.437729 0.903839 0.049878 
0.903084 0.563032 0.047712 
0.562377 0.096274 0.049304 
0.096155 0.562696 0.046732 
0.259077 0.202435 0.045798 
0.741552 0.797575 0.043832 
0.797832 0.258396 0.053765 
0.208849 0.745305 0.056242 
0.196619 0.279105 0.047352 
0.798085 0.716227 0.046351 
0.714728 0.206492 0.055303 
0.285424 0.793622 0.057873 
0.501940 0.411466 0.051538 
0.497541 0.588412 0.053120 
0.241010 0.365372 0.047478 
0.758977 0.634794 0.047728 
0.689473 0.501175 0.051963 
0.645681 0.345182 0.054126 
0.308835 0.504391 0.051776 
0.354145 0.654371 0.056388 
0.080773 0.185139 0.053161 
0.177912 0.085391 0.051558 
0.816654 0.918277 0.049963 
0.920812 0.183129 0.048166 
0.915938 0.819694 0.054077 
0.822660 0.083249 0.053095 
0.078966 0.817260 0.048518 
0.183506 0.914170 0.054003 
0.652204 0.656244 0.047894 
0.348021 0.343974 0.047625 
0.514831 0.697172 0.051088 
0.485561 0.302901 0.049454 
0.611231 0.917984 0.039793 
0.389023 0.082540 0.042841 
0.078283 0.395115 0.045672 
0.917929 0.390316 0.047510 
0.924603 0.660201 0.048151 
0.660592 0.074760 0.053616 
0.339672 0.925464 0.055483 
0.073212 0.660776 0.047865 
0.432166 0.822511 0.052019 
0.820912 0.566139 0.048992 
0.567870 0.177343 0.050599 
0.178860 0.566425 0.050446 
0.190634 0.431586 0.047841 
0.574600 0.819246 0.044051 
0.426261 0.178304 0.044820 
0.822076 0.427201 0.051133 
0.565029 0.457386 0.052775 
0.435541 0.541887 0.053663 
0.774595 0.331448 0.053928 
0.224883 0.667703 0.055240 
0.667580 0.781753 0.043397 
0.333604 0.218065 0.044753 
0.677362 0.930503 0.040528 
0.068807 0.318724 0.047818 
0.323082 0.069739 0.043452 
0.931481 0.323189 0.047227 
0.745387 0.559975 0.049833 
0.448733 0.737070 0.053090 
0.551292 0.262762 0.051114 
0.614447 0.595437 0.050568 
0.386150 0.405445 0.049975 
0.258731 0.442911 0.049016 
0.584991 0.392539 0.053017 
0.414969 0.607195 0.054788 
0.450828 0.427618 0.051217 
0.548896 0.572320 0.052328 
0.485792 0.935471 0.045861 
0.935062 0.515271 0.046747 
0.514216 0.064600 0.046209 
0.064571 0.514904 0.044691 
0.500940 0.839447 0.047247 
0.838194 0.507465 0.049533 
0.499581 0.151571 0.047041 
0.153215 0.501046 0.047914 
0.696163 0.843033 0.042119 
0.303956 0.156535 0.044337 
0.843191 0.303236 0.051755 
0.148570 0.701599 0.053163 
0.159744 0.231851 0.048208 
0.841232 0.772473 0.047471 
0.774024 0.158286 0.054597 
0.225956 0.841978 0.056898 
0.669837 0.237927 0.054523 
0.330539 0.762182 0.057469 
0.696855 0.355737 0.054495 
0.302974 0.643870 0.056218 
0.939618 0.606219 0.047497 
0.605934 0.059843 0.051199 
0.394712 0.940267 0.052227 
0.059454 0.606032 0.045868 
0.700114 0.433529 0.053500 
0.303787 0.558003 0.053599 
0.055232 0.056414 0.062821 
0.947847 0.055018 0.046625 
0.944541 0.943404 0.062992 
0.051771 0.945555 0.043615 
0.771886 0.945320 0.046668 
0.055654 0.233426 0.051242 
0.227243 0.054618 0.048559 
0.944061 0.769981 0.052913 
0.772848 0.055120 0.054952 
0.227542 0.944939 0.055774 
0.948064 0.227815 0.046666 
0.053257 0.771152 0.047363 
0.220227 0.160469 0.047213 
0.774082 0.846722 0.045259 
0.848285 0.225142 0.051838 
0.154248 0.774579 0.054220 
0.553990 0.948644 0.041289 
[...]
POINT_DATA 1221
SCALARS u float 1
LOOKUP_TABLE default
0.226366
0.072779
0.234763
0.138947
0.225785
0.077876
0.233780
0.141514
0.189851
0.149385
0.104222
0.059219
0.026839
0.019836
0.037351
0.059192
0.076301
0.085258
0.085908
0.080548
0.075811
0.071191
0.071997
0.080176
0.091152
0.107505
0.125272
0.189390
0.147288
0.101526
0.053687
0.018664
0.009571
0.035094
0.058703
0.076503
0.085778
0.086976
0.080886
0.075529
0.071306
0.072981
0.079727
0.090908
0.106024
0.123160
0.223721
0.137796
0.178214
0.122815
0.066543
0.017080
0.030285
0.060972
0.085320
0.090246
0.082554
0.062744
0.033751
0.010844
0.032673
0.053659
0.059491
0.050721
0.034012
0.029279
0.049996
0.179386
0.126588
0.075399
0.029171
0.036660
0.063967
0.084331
0.089967
0.081067
0.061502
0.034048
0.016159
0.036507
0.055771
0.059444
0.045484
0.023206
0.011462
0.041323
0.073597
0.075752
0.072653
0.071408
0.070879
0.070411
0.070853
0.069748
0.068022
0.064243
0.058162
0.049513
0.037197
0.018523
0.022266
0.054683
0.092880
0.133454
0.169322
0.203431
0.071060
0.069594
0.068719
0.069136
0.069361
0.070295
0.069617
0.068963
0.065437
0.059449
0.050795
0.036748
0.015109
0.014938
0.049670
0.091237
0.132083
0.169388
0.203480
0.231716
0.178507
0.118014
0.062073
0.016078
0.049818
0.086200
0.114768
0.123943
0.106248
0.073879
0.036335
0.017611
0.045856
0.064481
0.063899
0.044790
0.029324
0.052648
0.095787
0.178864
0.121783
0.068061
0.034710
0.056626
0.088341
0.116459
0.121714
0.104547
0.073352
0.036447
0.021869
0.049974
0.066367
0.061298
0.038522
0.012983
0.044364
0.091597
0.114993
0.120542
0.205689
0.210637
0.057442
0.026048
0.102621
0.090453
0.069948
0.125522
0.066848
0.052951
0.116863
0.024007
0.022969
0.087466
0.032831
0.030018
0.139489
0.067130
0.059292
0.011350
0.030186
0.042204
0.047559
0.053678
0.079512
0.017760
0.009969
0.021861
0.004749
0.013911
0.031889
0.024029
0.051882
0.012204
0.009180
0.038410
0.047681
0.095287
0.069834
0.033175
0.014787
0.024107
0.037044
0.062771
0.018505
0.006020
0.024664
0.047909
0.006338
0.066201
0.057728
0.017152
0.040794
0.067669
0.013907
0.043389
0.016801
0.019206
0.060539
0.080071
0.022904
0.046493
0.044724
0.038461
0.043789
0.025974
0.022539
0.035703
0.064930
0.080568
0.023968
0.079047
0.032239
0.012888
0.025186
0.013507
0.037244
0.046433
0.067964
0.042032
0.068671
0.029514
0.040152
0.058319
0.086589
0.017707
0.034465
0.027796
0.025427
0.022166
0.045491
0.020342
0.070299
0.040379
0.023031
0.014144
0.028285
0.049054
0.039004
0.026540
0.048302
0.024963
0.026928
0.016397
0.009694
0.113132
0.079074
0.047906
0.029109
0.020965
0.039882
0.060485
0.028101
0.025862
0.011469
0.011990
0.010656
0.023862
0.066923
0.057625
0.013695
0.030946
0.040405
0.043392
0.058280
0.072859
0.057888
0.104146
0.025829
0.072104
0.033481
0.005767
0.036134
0.015623
0.009664
0.005621
0.011592
0.033768
0.052839
0.014391
0.025807
0.047618
0.036003
0.043813
0.059027
0.033035
0.006128
0.034381
0.023304
0.086841
0.062333
0.021866
0.036310
0.020991
0.029993
0.051432
0.076413
0.049824
0.082417
0.049413
0.068520
0.027718
0.015815
0.027288
0.046857
0.038594
0.040154
0.143489
0.045806
0.145578
0.076561
0.038530
0.018405
0.016824
0.038773
0.056145
0.065382
0.041136
0.034933
0.030931
0.054470
0.022572
0.048881
0.096607
0.043129
0.074603
0.061064
0.027994
0.029597
0.055688
0.079994
0.025976
0.030808
0.008957
0.026291
0.034877
0.021080
0.027015
0.030371
0.030624
0.046652
0.044414
0.085919
0.069590
0.042847
0.059493
0.025968
0.103316
0.055515
0.026356
0.029065
0.012727
0.020140
0.033182
0.036439
0.065793
0.026081
0.089844
0.069608
0.009463
0.040284
0.052655
0.054723
0.081719
0.034425
0.039363
0.073531
0.060249
0.031116
0.013557
0.056078
0.035777
0.071713
0.031610
0.026372
0.036374
0.034108
0.055426
0.030868
0.015912
0.031918
0.029465
0.048098
0.041878
0.068640
0.048025
0.079420
0.043191
0.022983
0.024515
0.019121
0.020590
0.029618
0.030812
0.044803
0.059297
0.030096
0.031510
0.048020
0.077925
0.018729
0.104012
0.073209
0.013825
0.021965
0.037699
0.022052
0.063205
0.021663
0.042408
0.059902
0.038784
0.022373
0.037471
0.039984
0.034893
0.035806
0.016209
0.026265
0.036572
0.028858
0.081240
0.013047
0.051817
0.043947
0.023940
0.017617
0.026229
0.043642
0.022840
0.019716
0.028259
0.119358
0.040740
0.085625
0.047955
0.016750
0.007925
0.013806
0.042629
0.028056
0.019729
0.021964
0.024376
0.063744
0.051562
0.050431
0.072062
0.061070
0.029579
0.050786
0.023200
0.083849
0.041035
0.056537
0.037258
0.018291
0.024325
0.016312
0.013996
0.005304
0.030999
0.022953
0.035161
0.058994
0.003802
0.022106
0.008465
0.023369
0.015687
0.033839
0.014616
0.012604
0.008815
0.013484
0.010503
0.011400
0.059684
0.015281
0.042579
0.052613
0.052923
0.048490
0.023344
0.066807
0.043134
0.039136
0.017518
0.018072
0.058607
0.039441
0.011363
0.116489
0.057830
0.083663
0.047615
0.013720
0.016489
0.014290
0.019444
0.034604
0.019354
0.017250
0.011639
0.023357
0.017680
0.045672
0.058705
0.032318
0.035092
0.027864
0.044146
0.019773
0.052260
0.068976
0.012831
0.104764
0.075448
0.014322
0.041397
0.059872
0.026126
0.047353
0.064462
0.076888
0.071401
0.030186
0.039460
0.019864
0.052390
0.074301
0.041701
0.129333
0.116391
0.050811
0.113195
0.030022
0.139254
0.077658
0.051993
0.047514
0.084424
0.057308
0.072140
0.051208
0.075701
0.035852
0.048094
0.015586
0.036942
0.037616
0.014068
0.016081
0.006155
0.054083
0.005120
0.094047
0.028047
0.011534
0.012885
0.005900
0.016497
0.035254
0.033176
0.061122
0.054164
0.006347
0.104070
0.025291
0.073013
0.053743
0.083367
0.014430
0.064932
0.046307
0.044701
0.073825
0.049916
0.041939
0.071563
0.013036
0.039094
0.056903
0.014204
0.064218
0.076400
0.012178
0.019600
0.048298
0.053440
0.033102
0.081336
0.045862
0.053747
0.023038
0.034767
0.059036
0.083728
0.024936
0.050388
0.007508
0.028663
0.047360
0.074515
0.019692
0.049010
0.091773
0.060214
0.015970
0.015394
0.023135
0.028498
0.056459
0.041648
0.181713
0.060946
0.188037
0.107875
0.011337
0.018826
0.035996
0.017520
0.017718
0.051569
0.071389
0.034703
0.013669
0.040069
0.111411
0.027604
0.079404
0.052197
0.023723
0.066618
0.027944
0.053597
0.084163
0.027008
0.021172
0.014933
0.008148
0.071641
0.032571
0.060052
0.055349
0.217709
0.220481
0.072421
0.074402
0.055679
0.068606
0.069740
0.111636
0.149834
0.185304
0.068318
0.068509
0.068776
0.070575
0.068850
0.061795
0.065582
0.068138
0.043261
0.027230
0.030836
0.007526
0.058192
0.063229
0.202001
0.206077
0.050930
0.047556
0.015829
0.037857
0.028435
0.056120
0.039695
0.093857
0.014011
0.144234
0.090438
0.073290
0.076435
0.087635
0.018527
0.045362
0.059468
0.014302
0.030009
0.042376
0.047327
0.053131
0.080656
0.014013
0.011872
0.021555
0.009998
0.020790
0.028552
0.025537
0.048387
0.009452
0.008552
0.039664
0.047716
0.095097
0.068864
0.032578
0.017313
0.025855
0.038438
0.062021
0.020063
0.005881
0.007068
0.023816
0.048520
0.064037
0.055671
0.019500
0.041412
0.069056
0.011744
0.045220
0.011810
0.018423
0.058733
0.079544
0.020070
0.045406
0.044031
0.041446
0.048306
0.025579
0.022042
0.035181
0.064379
0.081117
0.013793
0.081997
0.027587
0.013884
0.025585
0.013276
0.039426
0.046921
0.067845
0.041226
0.069622
0.030186
0.040532
0.056624
0.086453
0.017421
0.035166
0.028365
0.025743
0.023510
0.019563
0.044827
0.071719
0.037246
0.030379
0.024116
0.022828
0.049946
0.034312
0.024615
0.044523
0.025009
0.012743
0.027044
0.007576
0.110758
0.077729
0.047736
0.029565
0.021758
0.043074
0.060985
0.028091
0.025728
0.013510
0.012424
0.014636
0.024287
0.064778
0.055201
0.016653
0.030401
0.040686
0.072050
0.041493
0.058532
0.058540
0.106015
0.024447
0.074246
0.033289
0.005699
0.035064
0.015761
0.009495
0.002320
0.011772
0.033731
0.053777
0.013708
0.026588
0.046821
0.037262
0.043422
0.061438
0.030608
0.011167
0.031872
0.025978
0.089572
0.063465
0.022284
0.037109
0.018914
0.031209
0.050229
0.076450
0.049038
0.082802
0.048863
0.066719
0.027967
0.019718
0.031210
0.048138
0.026548
0.024448
0.142395
0.038152
0.144832
0.073719
0.043269
0.015396
0.025029
0.037868
0.052736
0.062692
0.037982
0.036639
0.032785
0.056379
0.020245
0.045807
0.094307
0.044173
0.072849
0.060999
0.027652
0.030541
0.057616
0.080144
0.045303
0.029062
0.007925
0.026222
0.034419
0.025232
0.044377
0.030121
0.030744
0.022762
0.023669
0.086303
0.072664
0.038497
0.062549
0.013682
0.101235
0.053459
0.015068
0.017338
0.013011
0.034982
0.035882
0.065520
0.043863
0.055219
0.087361
0.068856
0.013342
0.040687
0.052723
0.053701
0.082530
0.034868
0.039343
0.058484
0.073255
0.031001
0.008573
0.058231
0.035469
0.073206
0.035918
0.018936
0.038279
0.028815
0.055745
0.031363
0.031282
0.032214
0.030586
0.049961
0.040492
0.069195
0.047649
0.080781
0.044746
0.024814
0.026272
0.020304
0.021051
0.029823
0.031063
0.030140
0.031731
0.049291
0.076977
0.017397
0.103758
0.071889
0.013969
0.022083
0.038551
0.021977
0.064818
0.018670
0.038747
0.055944
0.037810
0.024397
0.035678
0.042806
0.034474
0.034971
0.016571
0.026091
0.037153
0.029143
0.082232
0.008703
0.054839
0.042091
0.025268
0.027788
0.009815
0.022283
0.044288
0.022512
0.029746
0.035335
0.038175
0.119763
0.040062
0.082387
0.048241
0.017396
0.008280
0.013776
0.043336
0.033137
0.009662
0.016776
0.029452
0.051874
0.063281
0.050457
0.073132
0.055934
0.036209
0.047392
0.034496
0.084200
0.034755
0.055912
0.030410
0.015862
0.007075
0.021947
0.028888
0.012857
0.006930
0.008380
0.031667
0.023006
0.035159
0.041818
0.059994
0.059866
0.007547
0.021648
0.007236
0.023891
0.013073
0.033098
0.010027
0.012757
0.008181
0.009747
0.010638
0.060551
0.012079
0.046895
0.051708
0.046633
0.050421
0.025217
0.066690
0.045002
0.042095
0.011959
0.016665
0.056203
0.051767
0.010919
0.114117
0.057610
0.082661
0.048519
0.013068
0.017469
0.013076
0.023237
0.035611
0.020664
0.018529
0.015361
0.022689
0.015929
0.045286
0.059666
0.027643
0.044945
0.022043
0.049310
0.065756
0.013711
0.106708
0.074129
0.015613
0.048256
0.063234
0.077162
0.071289
0.084143
0.030091
0.039650
0.021204
0.055267
0.075081
0.040981
0.127892
0.119040
0.046055
0.114327
0.017154
0.139339
0.075627
0.045549
0.047458
0.008774
0.058062
0.070743
0.038498
0.050765
0.075487
0.039679
0.035508
0.047631
0.015345
0.011782
0.011811
0.012069
0.037177
0.015310
0.091601
0.029663
0.022465
0.037032
0.003376
0.015903
0.030998
0.034928
0.052552
0.060119
0.104682
0.023654
0.074794
0.053314
0.081886
0.017292
0.011422
0.063627
0.046997
0.044634
0.075987
0.049226
0.040893
0.071793
0.013218
0.076130
0.038548
0.057913
0.019077
0.063159
0.011673
0.020735
0.048708
0.052196
0.033962
0.082059
0.047872
0.066536
0.021677
0.035627
0.057880
0.083921
0.024187
0.049401
0.011143
0.005975
0.048984
0.077327
0.018017
0.050014
0.094035
0.063325
0.014608
0.018528
0.022277
0.032044
0.056792
0.046805
0.182533
0.054734
0.187930
0.104593
0.007982
0.016930
0.017429
0.018031
0.051445
0.072031
0.038209
0.040563
0.034882
0.012847
0.039596
0.113107
0.027868
0.078065
0.055533
0.014080
0.067626
0.020446
0.052616
0.084865
0.027314
0.020988
0.011975
0.071336
0.033704
0.058655
0.055520
0.130230
0.132923
0.206949
0.210519
0.086340
0.008186
0.073225
0.082655
0.096241
0.113700
0.034384
0.076679
0.123542
0.163302
0.022899
0.080843
0.047743
0.069962
0.076368
0.083177
0.068822
0.071416
