# vtk DataFile Version 2.0
Unstructured Grid Example
ASCII
DATASET UNSTRUCTURED_GRID
POINTS 1221 float
0.000000 0.000000 -0.000000 
1.000000 -0.000000 0.000000 
1.000000 1.000000 -0.000000 
-0.000000 1.000000 0.000000 
-0.000000 -0.000000 0.050000 
1.000000 -0.000000 0.050000 
1.000000 1.000000 0.050000 
0.000000 1.000000 0.050000 
-0.000000 0.050000 0.050000 
-0.000000 0.100000 0.050000 
-0.000000 0.150000 0.050000 
-0.000000 0.200000 0.050000 
-0.000000 0.250000 0.050000 
-0.000000 0.300000 0.050000 
-0.000000 0.350000 0.050000 
0.000000 0.400000 0.050000 
0.000000 0.450000 0.050000 
0.000000 0.500000 0.050000 
0.000000 0.550000 0.050000 
0.000000 0.600000 0.050000 
0.000000 0.650000 0.050000 
0.000000 0.700000 0.050000 
0.000000 0.750000 0.050000 
0.000000 0.800000 0.050000 
0.000000 0.850000 0.050000 
0.000000 0.900000 0.050000 
0.000000 0.950000 0.050000 
0.000000 0.050000 -0.000000 
0.000000 0.100000 -0.000000 
0.000000 0.150000 -0.000000 
0.000000 0.200000 -0.000000 
0.000000 0.250000 -0.000000 
0.000000 0.300000 0.000000 
0.000000 0.350000 0.000000 
-0.000000 0.400000 0.000000 
-0.000000 0.450000 0.000000 
-0.000000 0.500000 0.000000 
-0.000000 0.550000 0.000000 
-0.000000 0.600000 0.000000 
-0.000000 0.650000 0.000000 
-0.000000 0.700000 0.000000 
-0.000000 0.750000 0.000000 
-0.000000 0.800000 0.000000 
-0.000000 0.850000 0.000000 
-0.000000 0.900000 0.000000 
-0.000000 0.950000 0.000000 
0.000000 -0.000000 0.025000 
0.000000 1.000000 0.025000 
0.050000 -0.000000 0.050000 
0.100000 -0.000000 0.050000 
0.150000 -0.000000 0.050000 
0.200000 -0.000000 0.050000 
0.250000 -0.000000 0.050000 
0.300000 -0.000000 0.050000 
0.350000 0.000000 0.050000 
0.400000 0.000000 0.050000 
0.450000 0.000000 0.050000 
0.500000 0.000000 0.050000 
0.550000 0.000000 0.050000 
0.600000 0.000000 0.050000 
0.650000 0.000000 0.050000 
0.700000 0.000000 0.050000 
0.750000 -0.000000 0.050000 
0.800000 -0.000000 0.050000 
0.850000 -0.000000 0.050000 
0.900000 -0.000000 0.050000 
0.950000 -0.000000 0.050000 
0.050000 0.000000 -0.000000 
0.100000 0.000000 -0.000000 
0.150000 -0.000000 -0.000000 
0.200000 -0.000000 -0.000000 
0.250000 -0.000000 0.000000 
0.300000 -0.000000 0.000000 
0.350000 -0.000000 0.000000 
0.400000 -0.000000 0.000000 
0.450000 -0.000000 0.000000 
0.500000 -0.000000 0.000000 
0.550000 -0.000000 0.000000 
0.600000 -0.000000 -0.000000 
0.650000 0.000000 -0.000000 
0.700000 0.000000 -0.000000 
0.750000 -0.000000 -0.000000 
0.800000 -0.000000 -0.000000 
0.850000 -0.000000 -0.000000 
0.900000 -0.000000 0.000000 
0.950000 -0.000000 0.000000 
1.000000 -0.000000 0.025000 
1.000000 0.050000 0.050000 
1.000000 0.100000 0.050000 
1.000000 0.150000 0.050000 
1.000000 0.200000 0.050000 
1.000000 0.250000 0.050000 
1.000000 0.300000 0.050000 
1.000000 0.350000 0.050000 
1.000000 0.400000 0.050000 
1.000000 0.450000 0.050000 
1.000000 0.500000 0.050000 
1.000000 0.550000 0.050000 
1.000000 0.600000 0.050000 
1.000000 0.650000 0.050000 
1.000000 0.700000 0.050000 
1.000000 0.750000 0.050000 
1.000000 0.800000 0.050000 
1.000000 0.850000 0.050000 
1.000000 0.900000 0.050000 
1.000000 0.950000 0.050000 
1.000000 0.050000 0.000000 
1.000000 0.100000 0.000000 
1.000000 0.150000 0.000000 
1.000000 0.200000 0.000000 
1.000000 0.250000 0.000000 
1.000000 0.300000 0.000000 
1.000000 0.350000 0.000000 
1.000000 0.400000 0.000000 
1.000000 0.450000 0.000000 
1.000000 0.500000 0.000000 
1.000000 0.550000 0.000000 
1.000000 0.600000 0.000000 
1.000000 0.650000 0.000000 
1.000000 0.700000 -0.000000 
1.000000 0.750000 -0.000000 
1.000000 0.800000 -0.000000 
1.000000 0.850000 -0.000000 
1.000000 0.900000 -0.000000 
1.000000 0.950000 -0.000000 
1.000000 1.000000 0.025000 
0.950000 1.000000 0.050000 
0.900000 1.000000 0.050000 
0.850000 1.000000 0.050000 
0.800000 1.000000 0.050000 
0.750000 1.000000 0.050000 
0.700000 1.000000 0.050000 
0.650000 1.000000 0.050000 
0.600000 1.000000 0.050000 
0.550000 1.000000 0.050000 
0.500000 1.000000 0.050000 
0.450000 1.000000 0.050000 
0.400000 1.000000 0.050000 
0.350000 1.000000 0.050000 
0.300000 1.000000 0.050000 
0.250000 1.000000 0.050000 
0.200000 1.000000 0.050000 
0.150000 1.000000 0.050000 
0.100000 1.000000 0.050000 
0.050000 1.000000 0.050000 
0.950000 1.000000 -0.000000 
0.900000 1.000000 -0.000000 
0.850000 1.000000 -0.000000 
0.800000 1.000000 -0.000000 
0.750000 1.000000 0.000000 
0.700000 1.000000 0.000000 
0.650000 1.000000 0.000000 
0.600000 1.000000 0.000000 
0.550000 1.000000 0.000000 
0.500000 1.000000 0.000000 
0.450000 1.000000 0.000000 
0.400000 1.000000 -0.000000 
0.350000 1.000000 -0.000000 
0.300000 1.000000 -0.000000 
0.250000 1.000000 -0.000000 
0.200000 1.000000 -0.000000 
0.150000 1.000000 -0.000000 
0.100000 1.000000 0.000000 
0.050000 1.000000 0.000000 
0.024306 1.000000 0.018889 
0.019792 1.000000 0.035417 
0.975694 1.000000 0.018889 
0.980208 1.000000 0.035417 
0.481667 1.000000 0.025000 
0.775000 1.000000 0.025000 
0.675000 1.000000 0.025000 
0.525741 1.000000 0.025000 
0.725000 1.000000 0.025000 
0.625000 1.000000 0.025000 
0.075000 1.000000 0.025000 
0.225000 1.000000 0.025000 
0.575082 1.000000 0.025000 
0.175000 1.000000 0.025000 
0.125000 1.000000 0.025000 
0.875000 1.000000 0.025000 
0.825000 1.000000 0.025000 
0.375000 1.000000 0.025000 
0.918333 1.000000 0.025000 
0.275000 1.000000 0.025000 
0.325000 1.000000 0.025000 
0.425000 1.000000 0.025000 
0.500000 0.500000 0.050000 
0.292317 0.294950 0.050000 
0.707666 0.705075 0.050000 
0.709075 0.290754 0.050000 
0.290925 0.709246 0.050000 
0.501362 0.781413 0.050000 
0.784454 0.498005 0.050000 
0.499500 0.223247 0.050000 
0.224259 0.502745 0.050000 
0.168216 0.170667 0.050000 
0.830992 0.169682 0.050000 
0.830318 0.830992 0.050000 
0.169008 0.830318 0.050000 
0.563646 0.640621 0.050000 
0.436354 0.359379 0.050000 
0.642441 0.437608 0.050000 
0.353376 0.567036 0.050000 
0.639819 0.846790 0.050000 
0.360767 0.153751 0.050000 
0.151302 0.360557 0.050000 
0.846764 0.360183 0.050000 
0.846319 0.641289 0.050000 
0.641525 0.153607 0.050000 
0.358475 0.846393 0.050000 
0.153789 0.634860 0.050000 
0.678277 0.581478 0.050000 
0.560682 0.330822 0.050000 
0.439318 0.669178 0.050000 
0.321747 0.420349 0.050000 
0.533762 0.882007 0.050000 
0.465232 0.117876 0.050000 
0.882289 0.465649 0.050000 
0.119907 0.465614 0.050000 
0.744310 0.896577 0.050000 
0.107943 0.258251 0.050000 
0.258632 0.097806 0.050000 
0.896577 0.255690 0.050000 
0.889638 0.737035 0.050000 
0.737035 0.110362 0.050000 
0.262965 0.889638 0.050000 
0.110265 0.738515 0.050000 
0.600991 0.740025 0.050000 
0.399009 0.259975 0.050000 
0.745242 0.404630 0.050000 
0.251676 0.597813 0.050000 
0.598386 0.520917 0.050000 
0.398030 0.474995 0.050000 
0.611769 0.253955 0.050000 
0.388096 0.745855 0.050000 
0.097599 0.094793 0.050000 
0.902401 0.094793 0.050000 
0.905207 0.902401 0.050000 
0.098565 0.905427 0.050000 
0.436842 0.903082 0.050000 
0.903082 0.563158 0.050000 
0.563158 0.096918 0.050000 
0.096918 0.563158 0.050000 
0.258671 0.202310 0.050000 
0.741840 0.797267 0.050000 
0.797207 0.258167 0.050000 
0.209038 0.745456 0.050000 
0.196196 0.278968 0.050000 
0.798193 0.716099 0.050000 
0.714642 0.206615 0.050000 
0.285358 0.793385 0.050000 
0.502075 0.411926 0.050000 
0.497247 0.588340 0.050000 
0.240839 0.365394 0.050000 
0.759155 0.634398 0.050000 
0.689557 0.500722 0.050000 
0.645963 0.345309 0.050000 
0.308772 0.504905 0.050000 
0.354033 0.654650 0.050000 
0.080246 0.183344 0.050000 
0.177048 0.084288 0.050000 
0.817591 0.919157 0.050000 
0.919157 0.182409 0.050000 
0.917209 0.820988 0.050000 
0.820988 0.082791 0.050000 
0.080843 0.817591 0.050000 
0.185318 0.914213 0.050000 
0.651895 0.655455 0.050000 
0.348091 0.344567 0.050000 
0.514031 0.696540 0.050000 
0.485969 0.303460 0.050000 
0.610203 0.917175 0.050000 
0.389506 0.083043 0.050000 
0.078391 0.394623 0.050000 
0.917121 0.389923 0.050000 
0.924963 0.660497 0.050000 
0.660497 0.075037 0.050000 
0.339743 0.925010 0.050000 
0.074449 0.661442 0.050000 
0.431201 0.821785 0.050000 
0.820990 0.565880 0.050000 
0.568583 0.177911 0.050000 
0.179567 0.566916 0.050000 
0.190419 0.431511 0.050000 
0.573701 0.818318 0.050000 
0.426682 0.178985 0.050000 
0.821643 0.426919 0.050000 
0.565471 0.457559 0.050000 
0.435326 0.542103 0.050000 
0.774279 0.331231 0.050000 
0.225473 0.668250 0.050000 
0.667559 0.781181 0.050000 
0.333304 0.218391 0.050000 
0.677339 0.930338 0.050000 
0.068549 0.317893 0.050000 
0.322720 0.069666 0.050000 
0.930338 0.322661 0.050000 
0.745702 0.559591 0.050000 
0.447837 0.736398 0.050000 
0.551968 0.263328 0.050000 
0.614123 0.594849 0.050000 
0.385984 0.405928 0.050000 
0.258595 0.443264 0.050000 
0.585440 0.392899 0.050000 
0.414560 0.607101 0.050000 
0.450626 0.428055 0.050000 
0.548620 0.572194 0.050000 
0.484780 0.934690 0.050000 
0.934690 0.515220 0.050000 
0.515220 0.065310 0.050000 
0.065310 0.515220 0.050000 
0.500183 0.838510 0.050000 
0.837947 0.507288 0.050000 
0.500340 0.152240 0.050000 
0.153549 0.501215 0.050000 
0.696677 0.842870 0.050000 
0.303911 0.156809 0.050000 
0.842351 0.302825 0.050000 
0.149345 0.702148 0.050000 
0.159595 0.231209 0.050000 
0.841959 0.773192 0.050000 
0.773192 0.158041 0.050000 
0.226808 0.841959 0.050000 
0.669974 0.238179 0.050000 
0.330011 0.761800 0.050000 
0.696901 0.355723 0.050000 
0.303099 0.644277 0.050000 
0.939617 0.606518 0.050000 
0.606518 0.060383 0.050000 
0.393789 0.939677 0.050000 
0.060317 0.606623 0.050000 
0.700256 0.433303 0.050000 
0.303887 0.558621 0.050000 
0.054421 0.054109 0.050000 
0.945579 0.054109 0.050000 
0.945891 0.945579 0.050000 
0.054528 0.945916 0.050000 
0.772743 0.945988 0.050000 
0.055649 0.232303 0.050000 
0.226876 0.054255 0.050000 
0.945169 0.771633 0.050000 
0.771633 0.054831 0.050000 
0.228967 0.944883 0.050000 
0.946528 0.227088 0.050000 
0.054963 0.771637 0.050000 
0.219987 0.160162 0.050000 
0.775300 0.847490 0.050000 
0.847484 0.224701 0.050000 
0.155642 0.774717 0.050000 
0.553193 0.947802 0.050000 
[...]
POINT_DATA 1221
SCALARS u float 1
LOOKUP_TABLE default
0.226366
0.072779
0.234763
0.138947
0.225785
0.077876
0.233780
0.141514
0.189851
0.149385
0.104222
0.059219
0.026839
0.019836
0.037351
0.059192
0.076301
0.085258
0.085908
0.080548
0.075811
0.071191
0.071997
0.080176
0.091152
0.107505
0.125272
0.189390
0.147288
0.101526
0.053687
0.018664
0.009571
0.035094
0.058703
0.076503
0.085778
0.086976
0.080886
0.075529
0.071306
0.072981
0.079727
0.090908
0.106024
0.123160
0.223721
0.137796
0.178214
0.122815
0.066543
0.017080
0.030285
0.060972
0.085320
0.090246
0.082554
0.062744
0.033751
0.010844
0.032673
0.053659
0.059491
0.050721
0.034012
0.029279
0.049996
0.179386
0.126588
0.075399
0.029171
0.036660
0.063967
0.084331
0.089967
0.081067
0.061502
0.034048
0.016159
0.036507
0.055771
0.059444
0.045484
0.023206
0.011462
0.041323
0.073597
0.075752
0.072653
0.071408
0.070879
0.070411
0.070853
0.069748
0.068022
0.064243
0.058162
0.049513
0.037197
0.018523
0.022266
0.054683
0.092880
0.133454
0.169322
0.203431
0.071060
0.069594
0.068719
0.069136
0.069361
0.070295
0.069617
0.068963
0.065437
0.059449
0.050795
0.036748
0.015109
0.014938
0.049670
0.091237
0.132083
0.169388
0.203480
0.231716
0.178507
0.118014
0.062073
0.016078
0.049818
0.086200
0.114768
0.123943
0.106248
0.073879
0.036335
0.017611
0.045856
0.064481
0.063899
0.044790
0.029324
0.052648
0.095787
0.178864
0.121783
0.068061
0.034710
0.056626
0.088341
0.116459
0.121714
0.104547
0.073352
0.036447
0.021869
0.049974
0.066367
0.061298
0.038522
0.012983
0.044364
0.091597
0.114993
0.120542
0.205689
0.210637
0.057442
0.026048
0.102621
0.090453
0.069948
0.125522
0.066848
0.052951
0.116863
0.024007
0.022969
0.087466
0.032831
0.030018
0.139489
0.067130
0.059292
0.011350
0.030186
0.042204
0.047559
0.053678
0.079512
0.017760
0.009969
0.021861
0.004749
0.013911
0.031889
0.024029
0.051882
0.012204
0.009180
0.038410
0.047681
0.095287
0.069834
0.033175
0.014787
0.024107
0.037044
0.062771
0.018505
0.006020
0.024664
0.047909
0.006338
0.066201
0.057728
0.017152
0.040794
0.067669
0.013907
0.043389
0.016801
0.019206
0.060539
0.080071
0.022904
0.046493
0.044724
0.038461
0.043789
0.025974
0.022539
0.035703
0.064930
0.080568
0.023968
0.079047
0.032239
0.012888
0.025186
0.013507
0.037244
0.046433
0.067964
0.042032
0.068671
0.029514
0.040152
0.058319
0.086589
0.017707
0.034465
0.027796
0.025427
0.022166
0.045491
0.020342
0.070299
0.040379
0.023031
0.014144
0.028285
0.049054
0.039004
0.026540
0.048302
0.024963
0.026928
0.016397
0.009694
0.113132
0.079074
0.047906
0.029109
0.020965
0.039882
0.060485
0.028101
0.025862
0.011469
0.011990
0.010656
0.023862
0.066923
0.057625
0.013695
0.030946
0.040405
0.043392
0.058280
0.072859
0.057888
0.104146
0.025829
0.072104
0.033481
0.005767
0.036134
0.015623
0.009664
0.005621
0.011592
0.033768
0.052839
0.014391
0.025807
0.047618
0.036003
0.043813
0.059027
0.033035
0.006128
0.034381
0.023304
0.086841
0.062333
0.021866
0.036310
0.020991
0.029993
0.051432
0.076413
0.049824
0.082417
0.049413
0.068520
0.027718
0.015815
0.027288
0.046857
0.038594
0.040154
0.143489
0.045806
0.145578
0.076561
0.038530
0.018405
0.016824
0.038773
0.056145
0.065382
0.041136
0.034933
0.030931
0.054470
0.022572
0.048881
0.096607
0.043129
0.074603
0.061064
0.027994
0.029597
0.055688
0.079994
0.025976
0.030808
0.008957
0.026291
0.034877
0.021080
0.027015
0.030371
0.030624
0.046652
0.044414
0.085919
0.069590
0.042847
0.059493
0.025968
0.103316
0.055515
0.026356
0.029065
0.012727
0.020140
0.033182
0.036439
0.065793
0.026081
0.089844
0.069608
0.009463
0.040284
0.052655
0.054723
0.081719
0.034425
0.039363
0.073531
0.060249
0.031116
0.013557
0.056078
0.035777
0.071713
0.031610
0.026372
0.036374
0.034108
0.055426
0.030868
0.015912
0.031918
0.029465
0.048098
0.041878
0.068640
0.048025
0.079420
0.043191
0.022983
0.024515
0.019121
0.020590
0.029618
0.030812
0.044803
0.059297
0.030096
0.031510
0.048020
0.077925
0.018729
0.104012
0.073209
0.013825
0.021965
0.037699
0.022052
0.063205
0.021663
0.042408
0.059902
0.038784
0.022373
0.037471
0.039984
0.034893
0.035806
0.016209
0.026265
0.036572
0.028858
0.081240
0.013047
0.051817
0.043947
0.023940
0.017617
0.026229
0.043642
0.022840
0.019716
0.028259
0.119358
0.040740
0.085625
0.047955
0.016750
0.007925
0.013806
0.042629
0.028056
0.019729
0.021964
0.024376
0.063744
0.051562
0.050431
0.072062
0.061070
0.029579
0.050786
0.023200
0.083849
0.041035
0.056537
0.037258
0.018291
0.024325
0.016312
0.013996
0.005304
0.030999
0.022953
0.035161
0.058994
0.003802
0.022106
0.008465
0.023369
0.015687
0.033839
0.014616
0.012604
0.008815
0.013484
0.010503
0.011400
0.059684
0.015281
0.042579
0.052613
0.052923
0.048490
0.023344
0.066807
0.043134
0.039136
0.017518
0.018072
0.058607
0.039441
0.011363
0.116489
0.057830
0.083663
0.047615
0.013720
0.016489
0.014290
0.019444
0.034604
0.019354
0.017250
0.011639
0.023357
0.017680
0.045672
0.058705
0.032318
0.035092
0.027864
0.044146
0.019773
0.052260
0.068976
0.012831
0.104764
0.075448
0.014322
0.041397
0.059872
0.026126
0.047353
0.064462
0.076888
0.071401
0.030186
0.039460
0.019864
0.052390
0.074301
0.041701
0.129333
0.116391
0.050811
0.113195
0.030022
0.139254
0.077658
0.051993
0.047514
0.084424
0.057308
0.072140
0.051208
0.075701
0.035852
0.048094
0.015586
0.036942
0.037616
0.014068
0.016081
0.006155
0.054083
0.005120
0.094047
0.028047
0.011534
0.012885
0.005900
0.016497
0.035254
0.033176
0.061122
0.054164
0.006347
0.104070
0.025291
0.073013
0.053743
0.083367
0.014430
0.064932
0.046307
0.044701
0.073825
0.049916
0.041939
0.071563
0.013036
0.039094
0.056903
0.014204
0.064218
0.076400
0.012178
0.019600
0.048298
0.053440
0.033102
0.081336
0.045862
0.053747
0.023038
0.034767
0.059036
0.083728
0.024936
0.050388
0.007508
0.028663
0.047360
0.074515
0.019692
0.049010
0.091773
0.060214
0.015970
0.015394
0.023135
0.028498
0.056459
0.041648
0.181713
0.060946
0.188037
0.107875
0.011337
0.018826
0.035996
0.017520
0.017718
0.051569
0.071389
0.034703
0.013669
0.040069
0.111411
0.027604
0.079404
0.052197
0.023723
0.066618
0.027944
0.053597
0.084163
0.027008
0.021172
0.014933
0.008148
0.071641
0.032571
0.060052
0.055349
0.217709
0.220481
0.072421
0.074402
0.055679
0.068606
0.069740
0.111636
0.149834
0.185304
0.068318
0.068509
0.068776
0.070575
0.068850
0.061795
0.065582
0.068138
0.043261
0.027230
0.030836
0.007526
0.058192
0.063229
0.202001
0.206077
0.050930
0.047556
0.015829
0.037857
0.028435
0.056120
0.039695
0.093857
0.014011
0.144234
0.090438
0.073290
0.076435
0.087635
0.018527
0.045362
0.059468
0.014302
0.030009
0.042376
0.047327
0.053131
0.080656
0.014013
0.011872
0.021555
0.009998
0.020790
0.028552
0.025537
0.048387
0.009452
0.008552
0.039664
0.047716
0.095097
0.068864
0.032578
0.017313
0.025855
0.038438
0.062021
0.020063
0.005881
0.007068
0.023816
0.048520
0.064037
0.055671
0.019500
0.041412
0.069056
0.011744
0.045220
0.011810
0.018423
0.058733
0.079544
0.020070
0.045406
0.044031
0.041446
0.048306
0.025579
0.022042
0.035181
0.064379
0.081117
0.013793
0.081997
0.027587
0.013884
0.025585
0.013276
0.039426
0.046921
0.067845
0.041226
0.069622
0.030186
0.040532
0.056624
0.086453
0.017421
0.035166
0.028365
0.025743
0.023510
0.019563
0.044827
0.071719
0.037246
0.030379
0.024116
0.022828
0.049946
0.034312
0.024615
0.044523
0.025009
0.012743
0.027044
0.007576
0.110758
0.077729
0.047736
0.029565
0.021758
0.043074
0.060985
0.028091
0.025728
0.013510
0.012424
0.014636
0.024287
0.064778
0.055201
0.016653
0.030401
0.040686
0.072050
0.041493
0.058532
0.058540
0.106015
0.024447
0.074246
0.033289
0.005699
0.035064
0.015761
0.009495
0.002320
0.011772
0.033731
0.053777
0.013708
0.026588
0.046821
0.037262
0.043422
0.061438
0.030608
0.011167
0.031872
0.025978
0.089572
0.063465
0.022284
0.037109
0.018914
0.031209
0.050229
0.076450
0.049038
0.082802
0.048863
0.066719
0.027967
0.019718
0.031210
0.048138
0.026548
0.024448
0.142395
0.038152
0.144832
0.073719
0.043269
0.015396
0.025029
0.037868
0.052736
0.062692
0.037982
0.036639
0.032785
0.056379
0.020245
0.045807
0.094307
0.044173
0.072849
0.060999
0.027652
0.030541
0.057616
0.080144
0.045303
0.029062
0.007925
0.026222
0.034419
0.025232
0.044377
0.030121
0.030744
0.022762
0.023669
0.086303
0.072664
0.038497
0.062549
0.013682
0.101235
0.053459
0.015068
0.017338
0.013011
0.034982
0.035882
0.065520
0.043863
0.055219
0.087361
0.068856
0.013342
0.040687
0.052723
0.053701
0.082530
0.034868
0.039343
0.058484
0.073255
0.031001
0.008573
0.058231
0.035469
0.073206
0.035918
0.018936
0.038279
0.028815
0.055745
0.031363
0.031282
0.032214
0.030586
0.049961
0.040492
0.069195
0.047649
0.080781
0.044746
0.024814
0.026272
0.020304
0.021051
0.029823
0.031063
0.030140
0.031731
0.049291
0.076977
0.017397
0.103758
0.071889
0.013969
0.022083
0.038551
0.021977
0.064818
0.018670
0.038747
0.055944
0.037810
0.024397
0.035678
0.042806
0.034474
0.034971
0.016571
0.026091
0.037153
0.029143
0.082232
0.008703
0.054839
0.042091
0.025268
0.027788
0.009815
0.022283
0.044288
0.022512
0.029746
0.035335
0.038175
0.119763
0.040062
0.082387
0.048241
0.017396
0.008280
0.013776
0.043336
0.033137
0.009662
0.016776
0.029452
0.051874
0.063281
0.050457
0.073132
0.055934
0.036209
0.047392
0.034496
0.084200
0.034755
0.055912
0.030410
0.015862
0.007075
0.021947
0.028888
0.012857
0.006930
0.008380
0.031667
0.023006
0.035159
0.041818
0.059994
0.059866
0.007547
0.021648
0.007236
0.023891
0.013073
0.033098
0.010027
0.012757
0.008181
0.009747
0.010638
0.060551
0.012079
0.046895
0.051708
0.046633
0.050421
0.025217
0.066690
0.045002
0.042095
0.011959
0.016665
0.056203
0.051767
0.010919
0.114117
0.057610
0.082661
0.048519
0.013068
0.017469
0.013076
0.023237
0.035611
0.020664
0.018529
0.015361
0.022689
0.015929
0.045286
0.059666
0.027643
0.044945
0.022043
0.049310
0.065756
0.013711
0.106708
0.074129
0.015613
0.048256
0.063234
0.077162
0.071289
0.084143
0.030091
0.039650
0.021204
0.055267
0.075081
0.040981
0.127892
0.119040
0.046055
0.114327
0.017154
0.139339
0.075627
0.045549
0.047458
0.008774
0.058062
0.070743
0.038498
0.050765
0.075487
0.039679
0.035508
0.047631
0.015345
0.011782
0.011811
0.012069
0.037177
0.015310
0.091601
0.029663
0.022465
0.037032
0.003376
0.015903
0.030998
0.034928
0.052552
0.060119
0.104682
0.023654
0.074794
0.053314
0.081886
0.017292
0.011422
0.063627
0.046997
0.044634
0.075987
0.049226
0.040893
0.071793
0.013218
0.076130
0.038548
0.057913
0.019077
0.063159
0.011673
0.020735
0.048708
0.052196
0.033962
0.082059
0.047872
0.066536
0.021677
0.035627
0.057880
0.083921
0.024187
0.049401
0.011143
0.005975
0.048984
0.077327
0.018017
0.050014
0.094035
0.063325
0.014608
0.018528
0.022277
0.032044
0.056792
0.046805
0.182533
0.054734
0.187930
0.104593
0.007982
0.016930
0.017429
0.018031
0.051445
0.072031
0.038209
0.040563
0.034882
0.012847
0.039596
0.113107
0.027868
0.078065
0.055533
0.014080
0.067626
0.020446
0.052616
0.084865
0.027314
0.020988
0.011975
0.071336
0.033704
0.058655
0.055520
0.130230
0.132923
0.206949
0.210519
0.086340
0.008186
0.073225
0.082655
0.096241
0.113700
0.034384
0.076679
0.123542
0.163302
0.022899
0.080843
0.047743
0.069962
0.076368
0.083177
0.068822
0.071416
