# vtk DataFile Version 2.0
Unstructured Grid Example
ASCII
DATASET UNSTRUCTURED_GRID
POINTS 2044 float
0.999585 0.201578 -0.005127 
-0.003528 0.991028 -0.062686 
-1.001422 0.205621 -0.000676 
-0.004579 -1.004953 0.070497 
-0.001190 -0.123887 1.004556 
1.013570 0.102475 -0.000403 
1.015917 0.000414 0.005529 
1.008282 -0.103083 0.011466 
0.990650 -0.207106 0.018444 
0.959987 -0.309742 0.026426 
0.918475 -0.413069 0.032254 
0.867000 -0.510987 0.038128 
0.802967 -0.603588 0.043719 
0.729823 -0.691687 0.050495 
0.644991 -0.771274 0.055059 
0.550795 -0.839326 0.058689 
0.449267 -0.896137 0.062215 
0.342207 -0.944577 0.066173 
0.229775 -0.978066 0.069266 
0.113353 -0.998684 0.068924 
-0.121710 -0.994806 0.069207 
-0.237499 -0.973031 0.068069 
-0.349229 -0.936701 0.064927 
-0.456286 -0.889302 0.062145 
-0.555735 -0.828445 0.057443 
-0.648683 -0.761237 0.057500 
-0.733093 -0.683166 0.052582 
-0.807062 -0.596124 0.046609 
-0.870198 -0.503970 0.041459 
-0.924346 -0.408468 0.036429 
-0.965117 -0.305778 0.030799 
-0.995232 -0.202939 0.022260 
-1.014297 -0.099310 0.015985 
-1.021014 0.004182 0.010133 
-1.015716 0.105505 0.004488 
-0.979650 0.301341 -0.006472 
-0.946864 0.392472 -0.011669 
-0.908912 0.477177 -0.019627 
-0.862860 0.556706 -0.024995 
-0.809346 0.630480 -0.031419 
-0.749124 0.696616 -0.039452 
-0.684270 0.756199 -0.045543 
-0.616965 0.808006 -0.049680 
-0.543954 0.853873 -0.054914 
-0.469618 0.891184 -0.055073 
-0.394593 0.924849 -0.056208 
-0.319245 0.949847 -0.057413 
-0.240852 0.968165 -0.061836 
-0.161645 0.979424 -0.064111 
-0.083115 0.988404 -0.061850 
0.075059 0.988012 -0.060340 
0.153027 0.980152 -0.062041 
0.233674 0.968707 -0.060535 
0.312424 0.950715 -0.058893 
0.391086 0.925510 -0.055238 
0.467034 0.892785 -0.052491 
0.541015 0.854013 -0.048048 
0.613770 0.809531 -0.041780 
0.681982 0.756567 -0.036630 
0.747712 0.697085 -0.034050 
0.808264 0.629974 -0.027944 
0.861498 0.555833 -0.022447 
0.907468 0.474938 -0.017373 
0.946273 0.389214 -0.012544 
0.978449 0.295685 -0.006664 
0.996855 0.203001 0.094228 
0.983058 0.197745 0.191037 
0.959853 0.184799 0.286403 
0.924564 0.169354 0.380159 
0.881050 0.147220 0.469580 
0.831423 0.120683 0.554296 
0.770861 0.090266 0.633443 
0.706300 0.057258 0.706862 
0.633557 0.022915 0.772448 
0.555282 -0.009354 0.832594 
0.471526 -0.039711 0.884779 
0.382602 -0.068493 0.928160 
0.290382 -0.089324 0.963445 
0.193050 -0.106032 0.985086 
0.096683 -0.120059 1.001810 
-0.000436 -0.024183 1.000689 
-0.000800 0.075100 0.988327 
-0.001998 0.172928 0.962202 
-0.003559 0.270714 0.928395 
-0.003941 0.369574 0.886743 
-0.006158 0.462588 0.836358 
-0.001981 0.550750 0.775239 
0.001797 0.636632 0.705633 
0.001128 0.713226 0.630901 
0.000410 0.781996 0.547383 
-0.002369 0.841398 0.455237 
-0.004339 0.892619 0.358672 
-0.004365 0.935327 0.257497 
-0.004495 0.968770 0.153177 
-0.003595 0.987964 0.045873 
-0.096938 -0.121401 0.998684 
-0.193191 -0.111258 0.981344 
-0.288896 -0.094835 0.956837 
-0.380432 -0.073099 0.924885 
-0.468837 -0.041846 0.881741 
-0.552422 -0.008605 0.831356 
-0.632251 0.026740 0.773838 
-0.705705 0.062417 0.708221 
-0.771510 0.095126 0.635987 
-0.828909 0.126488 0.556276 
-0.880153 0.152500 0.471990 
-0.923794 0.174340 0.384064 
-0.957623 0.191235 0.291376 
-0.982831 0.201854 0.195982 
-0.997341 0.207619 0.097919 
0.001679 -0.221476 0.993001 
0.001599 -0.316723 0.975191 
0.002223 -0.408892 0.951863 
0.002988 -0.494627 0.916992 
0.002209 -0.572831 0.874759 
0.002454 -0.645493 0.822949 
0.003660 -0.715242 0.768179 
0.002567 -0.771164 0.703993 
0.002779 -0.827793 0.637107 
0.001426 -0.874553 0.565440 
-0.001119 -0.913140 0.491229 
-0.001445 -0.943998 0.411237 
-0.002010 -0.970964 0.328786 
-0.003183 -0.989140 0.244807 
-0.003519 -0.996391 0.158803 
0.700603 0.553474 0.452379 
0.304909 0.307393 0.867409 
0.276929 0.866604 0.350249 
0.836513 0.483044 0.306887 
0.886217 0.445629 0.230144 
0.917369 0.392535 0.206232 
0.937243 0.391004 0.123272 
0.434590 0.835188 0.294328 
0.476926 0.306091 0.796141 
0.236228 0.636578 0.680099 
0.634564 0.731975 0.266328 
0.677985 0.360934 0.630763 
0.663435 0.747482 0.161742 
0.729227 0.271547 0.623626 
0.177017 0.455717 0.823137 
0.174233 0.786804 0.524476 
0.758471 0.648463 0.192233 
0.793000 0.330647 0.518616 
0.118058 0.315319 0.903978 
0.107599 0.867807 0.397470 
0.339068 0.752789 0.508322 
0.349272 0.486203 0.757619 
0.347363 0.927096 0.110370 
0.405683 0.100744 0.896606 
0.820336 0.594202 0.136195 
0.859384 0.330708 0.416034 
0.081598 0.234593 0.941072 
0.069261 0.908121 0.317056 
0.226243 0.965335 0.063476 
0.274079 0.020495 0.958980 
0.876384 0.524860 0.070249 
0.914144 0.265807 0.346899 
0.492662 0.610237 0.580190 
0.077340 0.166523 0.963494 
0.064382 0.935193 0.246266 
0.178325 0.975657 0.032548 
0.219442 -0.015504 0.977547 
0.946855 0.300105 0.227516 
0.913082 0.456033 0.057944 
0.967283 0.296658 0.132450 
0.589370 0.477573 0.628785 
0.567462 0.694582 0.414268 
0.446780 0.748978 0.442807 
0.468682 0.456903 0.723369 
0.682198 0.661331 0.328037 
0.703665 0.441218 0.552472 
0.630641 0.580332 0.495196 
0.329327 0.624583 0.658172 
0.311727 0.104851 0.933079 
0.265265 0.942282 0.144023 
0.319407 0.898840 0.239867 
0.361992 0.214276 0.885400 
0.284007 0.701085 0.599738 
0.286258 0.563630 0.728679 
0.392118 0.791661 0.411427 
0.420745 0.407161 0.779471 
0.239362 0.395301 0.843625 
0.225104 0.824060 0.451876 
0.394576 0.884063 0.211187 
0.444778 0.211627 0.846233 
0.261029 0.477582 0.791864 
0.254887 0.768552 0.525662 
0.204586 0.319775 0.888612 
0.186484 0.866356 0.385568 
0.775251 0.576909 0.299113 
0.815214 0.412993 0.426984 
0.391695 0.306896 0.837204 
0.356413 0.852831 0.322479 
0.308320 0.815671 0.427400 
0.330361 0.392737 0.816070 
0.085466 0.486148 0.819642 
0.086424 0.764338 0.564872 
0.177032 0.713664 0.614666 
0.177260 0.552613 0.762205 
0.064382 0.391497 0.873595 
0.061765 0.827837 0.473990 
0.599835 0.341106 0.706636 
0.553369 0.780376 0.279238 
0.414162 0.913829 0.025554 
0.489817 0.044677 0.865324 
0.142383 0.897351 0.326161 
0.164611 0.253064 0.924919 
0.173889 0.957141 0.147563 
0.207831 0.086298 0.963915 
0.369435 0.674437 0.584553 
0.363429 0.555341 0.702831 
0.244372 0.206099 0.924785 
0.211522 0.916544 0.263940 
0.893055 0.375950 0.306132 
0.857583 0.522791 0.182718 
0.147639 0.393142 0.861996 
0.141517 0.827377 0.470707 
0.347789 0.938423 0.003976 
0.418589 0.002272 0.906911 
0.288192 0.954341 0.033192 
0.349252 0.009155 0.936339 
0.049249 0.314964 0.906704 
0.044948 0.867634 0.401150 
0.085485 0.961583 0.157431 
0.102642 0.082641 0.981835 
0.145647 0.170250 0.954359 
0.123291 0.930945 0.243994 
0.542176 0.536895 0.614674 
0.532875 0.663350 0.490374 
0.473486 0.690177 0.505776 
0.484218 0.529514 0.662236 
0.667765 0.512236 0.530187 
0.664388 0.622524 0.411536 
0.566330 0.595128 0.536478 
0.468627 0.857554 0.196845 
0.526192 0.226951 0.800430 
0.732224 0.635995 0.287921 
0.759360 0.426826 0.497751 
0.594850 0.643400 0.453791 
0.607912 0.528702 0.571049 
0.719048 0.487097 0.493211 
0.645494 0.455029 0.598490 
0.618905 0.685768 0.368683 
0.409313 0.721864 0.507337 
0.422829 0.509479 0.714351 
0.769703 0.505386 0.404273 
0.722763 0.596563 0.366721 
0.855719 0.399089 0.369499 
0.904562 0.452138 0.144588 
0.483918 0.782567 0.353816 
0.519020 0.383700 0.737042 
0.592518 0.412359 0.670321 
0.559065 0.739987 0.350717 
0.436070 0.658442 0.566889 
0.415454 0.597781 0.643204 
0.147765 0.636795 0.697101 
0.511636 0.721926 0.428708 
0.533240 0.467730 0.675415 
0.080846 0.591964 0.745634 
0.083092 0.679913 0.665824 
0.591671 0.791253 0.195749 
0.649138 0.275498 0.696318 
0.978825 0.283688 0.057375 
0.512754 0.137290 0.833275 
0.445996 0.891734 0.114352 
0.727807 0.161869 0.667425 
0.648617 0.781460 0.052858 
0.737515 0.369008 0.561771 
0.701024 0.691919 0.236637 
0.715852 0.720992 0.082669 
0.785449 0.201001 0.591992 
0.133386 -0.024092 0.992775 
0.108379 0.982151 0.038812 
0.884499 0.233181 0.428099 
0.829290 0.599205 0.051140 
0.781946 0.656454 0.065792 
0.841622 0.230740 0.502385 
0.810260 0.571421 0.224312 
0.570343 0.282744 0.752377 
0.516588 0.820087 0.235639 
0.045102 0.987292 0.005458 
0.058802 -0.062480 1.001677 
0.058601 0.007397 0.997580 
0.046058 0.981176 0.080413 
0.574878 0.831445 0.035720 
0.658469 0.116095 0.739736 
0.496319 0.876539 0.031307 
0.577842 0.079054 0.805427 
0.615990 0.796875 0.109210 
0.687184 0.202739 0.694210 
0.531171 0.845422 0.131033 
0.599654 0.188030 0.766439 
0.709801 0.705382 0.168569 
-0.399367 0.428253 0.771612 
-0.311811 0.868601 0.311040 
-0.801999 0.526262 0.323494 
-0.304554 0.248635 0.893521 
-0.233627 0.186564 0.930915 
-0.201493 0.102562 0.956057 
-0.154981 0.018989 0.979740 
-0.269619 0.772325 0.505962 
-0.739064 0.433039 0.513118 
-0.592120 0.768634 0.249081 
-0.249913 0.577706 0.720859 
-0.585202 0.317821 0.726479 
-0.161610 0.555569 0.760781 
-0.612412 0.220930 0.747041 
-0.450831 0.873037 0.173732 
-0.737915 0.675189 0.183772 
-0.187875 0.443176 0.831669 
-0.469696 0.188216 0.844522 
-0.348055 0.931164 0.091984 
-0.830926 0.588507 0.114387 
-0.679977 0.625486 0.388446 
-0.443030 0.787328 0.382957 
-0.126896 0.867526 0.401249 
-0.864621 0.314003 0.421698 
-0.145843 0.348214 0.887699 
-0.401418 0.104803 0.892995 
-0.284049 0.955126 0.039273 
-0.878153 0.527249 0.072545 
-0.094721 0.935558 0.247696 
-0.931685 0.300928 0.279540 
-0.339865 0.012523 0.933144 
-0.086553 0.244937 0.935440 
-0.515175 0.622104 0.557965 
-0.230031 0.968324 0.030741 
-0.909273 0.470756 0.069445 
-0.072968 0.958328 0.185026 
-0.954678 0.282055 0.222014 
-0.225288 0.004536 0.967457 
-0.101581 0.107455 0.972697 
-0.152676 -0.056854 0.988373 
-0.371141 0.611585 0.646747 
-0.568142 0.467331 0.650508 
-0.391930 0.727592 0.513314 
-0.651206 0.541521 0.516680 
-0.504564 0.342239 0.765898 
-0.305383 0.504008 0.760930 
-0.447687 0.497653 0.705673 
-0.565562 0.731016 0.364843 
-0.154804 0.911767 0.298667 
-0.891635 0.361710 0.323359 
-0.226353 0.867622 0.365724 
-0.831923 0.429178 0.383247 
[...]
POINT_DATA 2044
SCALARS u float 1
LOOKUP_TABLE default
6.524021
2.052007
6.652894
2.291284
4.011140
6.513975
6.429178
6.291351
6.106772
5.870722
5.501817
5.168247
4.778865
4.373208
3.916195
3.479066
3.081938
2.750614
2.507847
2.287325
2.366745
2.606876
2.911792
3.311341
3.727380
4.207141
4.641284
5.062231
5.430732
5.750688
6.078756
6.298249
6.472160
6.585512
6.619810
6.600857
6.490717
6.275411
6.020985
5.747929
5.436186
5.093660
4.663303
4.308534
3.826356
3.378016
2.892933
2.586967
2.339941
2.070024
2.101634
2.425228
2.708439
3.090617
3.454639
3.876245
4.290964
4.682747
5.069836
5.433292
5.728878
5.998701
6.210500
6.392072
6.421883
6.569288
6.399631
5.981067
5.479961
4.763627
3.904816
2.921462
1.852736
0.742126
0.304950
1.288150
2.220356
2.897660
3.434032
3.890545
3.957720
3.889918
3.801322
3.627450
3.300552
3.019083
2.707928
2.281380
1.937921
1.622499
1.413586
1.283045
1.278383
1.418180
1.707158
3.929622
3.600211
3.068640
2.366398
1.356420
0.296472
0.868335
2.020293
3.078539
4.093327
4.934391
5.640801
6.187372
6.531209
6.717683
3.995393
3.939823
3.841630
3.629970
3.290778
2.923474
2.623130
2.076624
1.776880
1.430787
1.197187
1.131072
1.327335
1.634355
1.970368
4.114312
2.415759
2.137795
5.502779
5.956554
6.148864
6.408757
3.186814
1.452769
1.923815
4.454096
2.817241
4.898088
3.018657
2.742619
1.577714
5.345037
4.132414
3.371590
1.504520
2.100387
2.026137
3.054519
1.828694
5.823473
5.046222
3.572169
1.421235
2.452006
2.994209
6.185109
5.582298
2.489568
3.676898
1.444746
2.285847
3.278440
6.186636
6.346620
6.493322
2.581793
3.520478
2.743430
1.816142
4.537985
3.544665
3.495255
1.937918
2.670291
2.496580
2.625929
2.119339
1.809991
2.012040
2.595056
1.695757
2.576831
1.719565
3.166644
1.514196
2.331951
1.764158
2.945924
1.677809
5.165602
4.801983
1.824395
2.606794
2.139110
2.147912
2.864839
1.701349
1.777349
2.353613
3.178921
1.503617
1.909375
3.950556
3.563384
0.995484
1.665104
3.267454
1.996119
3.338397
2.121928
1.983849
2.954931
1.996031
5.717804
5.949150
3.069041
1.466229
3.228543
1.794991
2.864695
2.465988
3.491803
1.465465
1.594265
3.749595
3.493120
1.646955
2.562643
3.028769
2.664504
2.155566
3.546514
4.094924
3.007702
3.644891
1.038432
4.984639
4.144033
3.525785
3.054738
4.006716
2.981037
4.011761
2.377521
1.903375
4.702804
4.621958
5.299058
6.237135
3.310827
1.689731
2.275811
3.763673
2.323504
2.055781
2.115752
3.156359
2.128855
2.408936
1.995741
4.420583
2.065631
6.531305
0.848169
3.650073
2.547738
4.935565
3.604723
4.903313
5.260696
3.469746
3.732439
1.945232
5.061293
5.928828
5.663625
4.433794
5.583187
1.359897
3.856495
1.879789
3.990508
3.938557
1.670421
4.506218
1.383102
4.050262
0.372486
4.726958
2.168645
4.175095
1.075171
5.131814
1.801833
2.204525
5.336370
2.497082
3.039649
3.374300
3.717709
1.821651
4.029084
4.142257
2.026931
1.732755
2.284308
1.385716
3.406198
5.337546
2.537914
1.295545
2.876150
5.980490
4.265421
2.721225
1.401004
5.248849
3.010101
1.946049
2.667475
6.221170
1.383367
6.137366
2.593010
3.522209
2.549082
2.414893
6.387266
1.408906
6.382832
3.393844
3.777184
3.788529
1.895050
2.291925
2.154011
3.504907
1.395415
2.044932
1.756576
3.599303
1.456274
5.815344
1.746861
5.293971
3.440097
4.272356
2.145418
4.137041
2.838933
5.335826
1.618700
4.593400
4.839597
3.116363
5.744641
2.601790
2.618747
1.793623
4.753866
1.965903
4.830523
2.424979
5.412399
3.854430
4.877265
3.924911
3.392232
5.750889
2.639843
1.860395
1.594138
4.646976
2.443214
6.051510
1.666962
6.310751
3.618613
2.999986
5.920772
1.956005
2.700790
5.682732
3.180615
1.298008
5.315433
1.246757
5.767360
5.982309
3.028930
1.993532
6.530570
6.288848
2.182995
2.055990
2.475398
3.011796
2.325107
1.811392
1.585791
2.068072
1.665996
3.826376
1.344800
2.197864
1.963715
1.878956
1.964762
1.896782
1.806116
3.090580
2.534197
3.616849
2.106391
1.591125
3.426570
1.906904
3.359922
1.871523
2.467221
3.118015
2.957221
4.535458
2.847890
1.998123
4.926184
4.478088
2.275086
1.969320
4.217923
1.619697
2.542268
1.271102
2.184870
1.146177
0.768131
2.719282
1.655459
6.619941
1.864484
3.309232
3.046351
0.947205
3.187855
1.776620
6.681483
1.854703
6.610636
1.977820
2.030016
2.156395
2.549049
1.773792
3.663208
0.470186
2.215315
1.996034
3.159175
1.779483
3.890117
3.937870
1.745628
5.562155
2.621273
2.622773
3.147146
3.489316
4.278479
1.951588
4.580316
1.811580
1.978614
1.259961
2.184226
5.647600
3.859019
1.057799
2.744853
6.290887
3.311310
3.257172
4.658568
5.313075
1.358954
1.930762
3.238038
6.507760
3.012693
6.205558
1.520161
3.526820
2.589930
2.899334
6.608154
2.729898
6.454331
1.620998
3.612203
3.160667
2.461450
2.022892
3.821743
2.493959
1.959358
1.571201
1.866941
4.118599
5.920822
1.716185
5.442035
1.929576
4.725319
3.942624
4.492092
2.566008
5.654598
3.321048
4.793920
1.669185
3.652824
5.231838
3.053890
6.001883
1.865112
2.367093
2.225496
5.010255
2.979397
5.162236
4.294680
5.744871
4.370679
5.251091
6.123433
3.778746
1.725982
2.760379
4.662553
1.297771
6.319957
2.878961
6.416998
2.027687
3.549467
4.216378
2.374600
6.094816
3.289881
2.855521
3.624108
5.981285
5.327129
1.194125
5.821310
1.260679
3.441696
6.328203
6.684396
2.335885
2.568409
6.526401
2.706775
2.371671
2.635483
3.356577
1.684845
1.846730
2.294978
3.955783
1.547277
2.215895
1.472098
2.083830
2.098502
1.578842
1.978122
1.865050
3.998380
2.952528
1.911281
1.968084
3.609572
2.003727
2.638689
1.862114
2.347372
3.139084
3.643822
4.907847
2.210276
3.130397
4.843258
5.288268
1.805362
2.317673
1.355610
4.281634
1.448496
2.421998
1.269169
2.302443
2.638637
0.504331
6.691250
1.962142
3.406410
1.813236
0.981795
3.084587
1.677027
3.294946
2.164638
6.709996
2.262974
6.701748
2.833004
2.569740
1.931009
1.532819
3.688788
2.865221
1.966615
1.991443
1.583249
3.207770
3.593485
3.912100
3.977583
3.791340
4.386144
2.249987
2.373222
5.691583
6.051841
6.270903
6.482546
6.597517
3.336075
1.517448
2.043500
4.713068
2.889758
5.100595
2.788305
1.738455
2.792419
5.539825
4.461315
1.434894
3.420849
2.051176
2.298520
3.108026
1.861697
5.136234
6.006177
1.342028
3.652578
2.492786
2.879800
6.260148
5.695687
2.677435
1.450198
3.776365
2.341969
3.262271
6.414668
6.185542
3.783336
2.707900
2.972761
1.967641
3.702709
4.757837
3.789406
2.071542
2.538933
2.633965
2.771342
2.169329
2.004272
2.132331
2.799341
1.878021
1.817508
2.638775
3.267747
1.486274
2.378653
1.936046
2.957478
1.696408
5.612442
4.888098
1.920004
2.802225
2.151312
2.311440
2.757656
1.571500
2.476068
1.944015
1.317150
3.204142
2.003653
4.140802
3.617617
1.027304
1.596604
3.337404
2.022180
3.280845
2.047961
2.219280
2.914246
1.997323
5.809883
6.132290
3.077668
1.582863
3.257451
1.801175
2.872309
2.449163
3.499886
1.212583
1.709923
3.864393
3.554934
1.628417
3.273672
2.687918
2.292720
2.905831
4.297024
3.834580
3.253271
3.740416
1.102320
4.254731
5.193742
3.226127
3.789091
4.772754
4.279624
3.101608
2.582302
2.066981
5.120010
4.378528
3.512375
1.784956
3.979289
2.373037
5.920349
2.252749
2.282965
2.213396
2.276099
3.383934
2.297029
1.938019
2.062554
4.588703
0.920024
3.728580
5.054490
2.662042
5.116371
3.613668
3.584912
5.425878
2.082182
3.771978
5.122371
6.077620
5.819002
4.316493
1.469743
3.988030
3.971048
2.097565
4.009988
1.862975
5.201613
4.604094
1.410260
4.112710
0.411947
3.507143
4.852995
2.126645
1.118664
4.284144
6.541415
6.435340
2.541907
2.281787
0.946215
1.174920
2.190385
1.971754
1.852976
2.115848
2.170574
2.212537
2.961376
1.451337
2.197103
1.352812
3.501898
2.491086
1.666105
3.587861
2.323724
3.086985
2.526762
2.533069
2.253288
4.057260
4.087067
2.312004
2.503461
3.226601
1.641516
2.335812
4.001964
3.371409
4.228751
2.678953
3.162014
3.367728
2.272646
1.383316
1.119308
1.869925
2.296314
1.171617
1.561394
1.216673
2.544632
4.843520
2.074478
4.668327
0.850295
5.018981
2.334110
4.620272
2.277014
2.316837
2.633876
4.118717
2.012074
2.099678
2.181023
2.965784
2.271792
2.354254
2.485710
4.974432
3.514584
1.930609
2.156545
2.246658
2.374862
2.616176
4.936187
2.506860
4.184780
3.309739
2.382366
2.239667
2.531511
2.061994
3.234834
1.298176
0.999760
0.521621
2.279210
2.719765
2.182812
2.776238
2.310001
2.429576
1.966831
4.458776
2.189952
1.892755
3.202108
2.340277
4.338731
3.308765
2.433814
2.261580
5.475459
1.520972
2.405423
5.395371
1.896303
5.193225
0.824436
1.805366
3.087995
2.114528
1.588656
2.880587
2.385481
3.117241
2.562541
2.273275
4.122566
2.170746
5.392533
0.592742
5.000285
2.162488
2.066385
2.340777
1.825398
5.302667
5.321211
4.103121
2.274544
4.919980
0.299344
2.558866
2.337256
2.320422
2.341756
3.178162
2.870706
3.051629
2.119916
2.425302
2.224661
2.147554
3.527022
3.038432
5.171668
4.306449
4.060674
2.229556
1.331092
2.757988
2.427648
1.767539
2.340566
3.769482
1.277248
2.003243
0.579558
1.515923
1.705423
2.374191
3.842927
5.693653
2.566429
2.346513
2.337044
2.374599
2.259281
3.037010
2.323173
2.404251
3.904615
1.852977
2.212104
2.871225
1.770091
1.511726
3.700669
0.903470
1.210335
2.319391
2.460581
2.343952
2.478364
5.809523
3.950327
3.943999
3.849987
2.270791
2.615733
2.464730
1.279074
5.478157
2.139564
2.714559
3.288107
2.364007
3.932351
1.534864
4.692116
5.208846
2.104792
3.008765
3.687863
4.656670
2.576451
2.074780
2.010597
2.408698
2.107768
4.317936
2.667715
1.347998
2.032653
5.561331
3.867701
2.331009
2.796860
5.567404
4.449017
2.750572
3.990833
1.169031
2.285124
2.189134
3.045532
5.439243
2.320192
2.311140
2.425248
2.112392
1.703145
2.459090
4.770485
2.689460
5.811498
4.593596
5.860134
2.121100
4.664759
2.249979
2.922319
2.269438
5.015974
5.721831
4.102501
5.683056
1.645299
2.340015
2.096321
3.122973
2.562288
3.683833
4.853728
2.534024
1.439603
1.837444
0.262840
2.465311
1.734355
3.772017
1.951768
3.265042
0.997130
4.391451
2.272817
2.412914
2.328387
2.653237
2.044919
2.209791
1.998216
2.441537
1.900936
2.112041
2.001169
3.846523
3.403649
5.053426
4.719156
3.782403
3.321735
3.705123
3.550212
4.771873
2.639127
2.248443
2.219814
1.985622
0.200794
2.277097
2.526293
1.982220
3.400629
2.367123
2.607223
1.689390
5.865573
1.694794
2.046383
2.247984
3.420015
3.711359
2.272138
0.911478
1.653271
1.471978
5.821483
2.046250
2.317614
2.327729
2.342095
4.508505
2.339461
1.819974
1.618086
2.480948
0.476987
0.957002
1.985302
2.056610
4.377597
2.849413
2.252943
2.740421
2.956973
1.781323
4.726656
3.884103
2.850959
1.206130
2.840160
3.104356
2.140094
2.350144
1.544093
2.235067
2.192892
3.527996
0.722636
1.145534
2.650608
4.960590
5.135196
1.719090
2.483116
5.730316
2.169829
1.932216
1.286197
3.454495
1.364473
4.040575
1.946764
2.335643
2.325365
3.490592
2.923106
2.124804
2.968662
2.062337
2.876473
2.896061
4.000032
3.489258
2.372439
2.040486
6.109219
2.043806
2.507699
2.423632
2.162934
3.433510
2.491078
2.394740
2.401701
2.463408
4.841887
6.027256
2.386358
2.480378
4.551779
2.329035
3.395636
1.698327
3.024614
4.549039
6.055486
2.240096
2.140491
3.579639
2.250240
3.575591
3.015203
1.820076
2.493766
2.178863
2.027991
1.915769
2.181887
2.204490
2.163127
5.884575
2.320694
1.894515
1.834927
2.964748
2.888650
1.563177
1.591065
1.759392
1.306144
1.996161
1.966423
2.202212
2.368736
1.986167
2.015233
5.509867
4.097030
4.610610
4.096701
2.074693
0.273733
0.479070
1.479039
0.413701
1.721104
1.729204
3.117152
5.532411
5.619193
2.715280
1.294955
2.228968
3.595764
3.679140
3.497725
3.633257
3.583351
3.204272
2.927236
3.551339
3.142428
2.924522
1.111101
2.476160
2.430015
3.522151
2.997419
2.312938
3.838382
3.651029
2.728896
3.144530
3.182862
2.761886
1.920344
2.607947
2.931474
2.741974
2.509739
2.139433
1.710619
2.842247
2.380968
1.901719
1.829349
2.067400
1.159949
2.431525
0.607003
2.050915
1.255233
2.347179
1.569461
2.734986
2.213009
1.321417
3.239151
2.072908
2.706792
2.375106
2.739445
1.030059
2.144457
2.282082
2.156468
2.423885
2.286102
4.074244
4.186251
3.361598
4.921790
1.533871
1.844172
2.903627
1.784692
2.495388
3.296064
2.273768
1.718103
4.466932
1.820556
1.998236
2.246963
2.417839
1.311076
1.939341
1.946252
1.684587
1.811519
2.685743
1.774511
1.928379
2.335330
1.898470
1.741174
1.707456
1.400665
1.209299
1.280806
1.785764
1.901938
3.499450
3.159806
2.194665
3.065581
2.172253
2.147738
2.026717
3.052022
2.154733
2.560318
3.618497
2.617043
3.234492
1.638095
4.776637
4.720494
5.630801
3.046928
3.250427
3.754030
3.601903
3.838557
0.681322
3.113091
2.188020
1.663028
4.359924
5.031352
2.410699
0.556459
2.004567
4.695061
2.371121
0.493150
2.754311
1.958263
0.359594
1.615381
2.405536
1.870288
1.662072
1.252590
1.168292
1.685826
0.621511
1.882342
2.293150
2.239423
1.802886
1.979031
1.147535
0.322703
1.734947
3.912073
2.705390
1.260968
1.552213
4.742550
1.732961
2.467373
1.801288
1.812457
2.740768
2.729709
1.356928
4.470844
2.484245
1.833865
2.286968
2.791832
3.705292
4.067419
1.658367
4.984138
4.088531
4.920423
5.101778
3.969313
3.867765
3.787768
2.961396
2.520890
3.828194
3.769382
3.818159
2.417613
3.598441
4.088535
1.689862
1.737047
2.551199
1.817848
1.965682
1.942623
3.333934
1.974560
1.900878
1.991972
1.846780
2.336410
1.638391
1.868959
1.606229
2.175726
1.790439
2.145790
2.122498
2.717329
1.944838
2.252400
2.127500
1.760466
1.194416
1.890111
1.814698
2.614312
1.786990
1.516880
1.743173
2.439946
1.693484
3.377851
3.038963
2.462339
3.636619
3.595070
3.237499
1.667382
2.416768
1.690981
1.798235
1.634573
1.713657
2.632031
2.973449
2.888915
2.956834
2.852183
1.304989
1.772810
3.891686
2.701523
1.266543
2.003455
1.838750
2.134401
3.323877
3.764537
2.885550
4.520577
2.961915
0.938432
4.763544
3.837402
1.863346
1.975634
1.977445
1.872353
1.911612
1.637940
2.003789
1.605547
3.617850
3.879812
3.846159
3.821746
3.828894
3.873281
3.619968
1.999294
2.302552
3.283347
5.136006
1.098971
2.479528
1.125976
1.809358
1.570307
4.302735
4.423092
3.561258
5.097305
2.276645
2.587643
2.445516
2.702895
2.472249
4.610033
3.197399
2.599869
1.731582
2.305353
3.073795
1.631940
1.545589
3.275306
2.286485
4.472029
1.696388
1.724695
1.789346
2.156388
1.945432
2.456181
1.490579
2.895265
1.941373
2.006628
3.389247
2.568406
1.911715
5.687651
0.957489
2.488349
2.122726
0.374918
1.691544
2.892278
2.298895
3.785663
1.756757
2.501946
2.081134
2.150358
2.255022
1.507069
1.319999
1.625572
1.782542
3.145922
1.340364
1.327886
3.499098
2.419706
1.652457
1.667866
1.769536
2.331580
1.690405
1.732116
1.535831
1.751254
1.086892
1.114006
2.342159
2.043982
2.237099
2.435795
1.422190
1.657116
1.394542
2.247404
2.036058
2.174720
2.281638
4.084245
1.971635
2.549567
2.130028
1.964006
1.565696
0.855830
1.937986
2.054497
0.864451
1.093241
1.936372
2.029157
3.823634
2.721488
3.078090
1.747850
2.826548
0.564587
0.912473
0.931235
2.087905
1.947377
2.130495
1.854115
1.974674
2.020821
2.720705
2.128836
2.859276
1.690103
1.843344
0.930776
1.717947
1.926879
2.047729
2.006775
2.105437
1.891633
2.163847
2.120173
2.066206
3.142373
2.957831
1.869623
2.167020
2.530552
1.894295
1.681919
1.867708
1.596914
5.210085
5.121410
2.015520
2.898927
0.737389
0.757548
0.716320
0.746284
1.851905
1.969534
4.265107
4.150946
4.192090
3.002069
3.331298
1.382843
1.447587
1.568733
2.632795
3.143391
3.041734
1.922760
2.334232
1.960963
1.847195
1.438176
1.716652
1.627852
3.422382
2.267037
1.738409
3.106796
2.943763
1.932213
2.083252
2.152777
2.224201
2.039059
2.023288
2.023819
1.895279
1.674489
3.760929
2.737638
3.762136
2.238210
1.951656
2.090623
2.072666
1.993156
2.122275
2.365686
2.005596
1.877110
2.046238
1.053357
0.302196
1.282886
1.724456
3.070608
3.051188
2.908940
1.683115
1.921591
2.102997
1.948814
1.516419
1.537889
2.390702
2.720013
2.315267
1.972730
0.405232
2.594679
2.857927
3.603895
5.068975
4.882240
4.843587
2.273498
2.243752
3.359444
2.636541
2.742804
2.581087
3.085555
2.214141
2.354737
2.473178
4.049556
3.701551
1.951209
2.273299
2.463242
2.243918
2.382713
2.422564
2.625123
1.893837
2.062114
1.944902
2.283748
1.872970
2.061008
1.958557
1.933803
1.633984
2.376528
3.290784
1.595670
1.334229
1.400814
1.103658
2.005272
1.907669
2.062544
2.033318
1.316807
3.861586
2.769280
2.147345
2.208573
2.292141
4.951838
1.952816
1.174549
1.690613
2.339288
1.578363
1.996158
1.939667
1.910382
1.904215
3.112437
2.974353
2.003736
2.122213
2.472148
2.366025
2.261388
1.985567
2.163332
1.896456
4.743838
4.635602
4.352584
2.756765
0.268362
0.200157
3.501424
4.232498
4.227965
3.697538
4.176611
1.981276
2.013193
1.834187
1.254870
1.352432
1.829793
2.053511
1.127868
1.656327
1.293770
1.451519
3.125895
3.279910
3.112865
1.924728
4.086523
3.941008
1.819843
1.904787
1.950916
1.348969
1.782407
0.260857
1.122988
2.202322
1.608162
1.561774
3.214463
2.373033
4.032325
1.682829
1.579831
1.943928
1.161349
1.005902
2.150343
2.100820
2.806744
2.706154
2.279895
3.192060
3.054779
1.892913
2.116033
1.719471
3.712522
2.633390
1.290890
2.320277
2.262347
2.512586
1.717869
1.671230
1.757098
1.999212
1.906159
1.962326
3.689574
3.633377
5.300740
3.627163
1.975313
1.916914
1.928765
2.883710
3.217373
3.943060
2.532167
3.182105
1.508553
1.228232
1.869556
1.575475
1.959585
3.811355
3.914187
3.724819
1.949237
1.822118
1.800589
2.301591
2.041987
1.038350
0.943265
1.442772
1.352810
1.635496
2.013073
1.820367
2.620911
2.091233
3.040241
1.826277
1.708439
3.510182
2.035659
2.153784
2.120829
1.720638
1.924221
0.591746
2.406088
2.268142
2.035536
2.029788
1.795195
1.820435
1.747208
3.913670
2.260380
1.740023
1.906717
2.012165
1.990655
1.635609
2.200752
2.300303
2.247445
1.925324
1.254165
1.101009
1.941225
1.978657
1.831312
4.830510
4.716051
2.058341
2.058380
1.957979
1.753630
2.933073
1.320589
2.379235
3.286901
1.847206
2.110035
1.887717
1.944686
1.869685
1.524670
1.705075
2.721919
2.606514
1.877837
1.313107
1.379077
4.007638
4.835292
1.732012
3.939795
1.956370
1.966685
2.109389
2.044894
1.677606
1.725556
2.470308
1.493586
1.691842
2.216601
2.085528
2.053669
1.546850
1.573159
1.744115
1.898189
1.839395
2.646320
2.640336
4.513546
1.949888
3.630882
2.739795
2.879490
2.884629
2.707861
2.790636
2.984219
2.680050
2.670460
2.595660
2.556285
3.255093
1.049700
0.648664
1.246639
1.492942
0.673783
2.030103
1.151938
0.896650
1.039687
1.563865
1.089284
2.012210
2.334229
2.440521
3.042940
2.812902
2.956188
2.013116
2.580434
1.960783
1.866683
2.429036
1.775999
2.819273
2.938431
2.424407
2.637747
1.967266
1.774163
2.560667
2.698024
2.510164
2.519972
2.793000
2.111138
2.737638
2.241624
2.396095
1.987316
1.684376
2.531317
1.098600
1.571572
2.072053
1.165438
1.677263
2.992664
2.741991
2.457988
2.583159
0.996525
2.735598
2.593632
2.156193
2.044641
2.090643
2.352972
1.780323
1.572419
1.574301
1.961042
1.688037
2.165661
1.381771
1.003006
1.377903
0.959736
1.812727
1.953046
1.726723
1.741064
1.999105
1.888662
1.751314
1.676045
2.339089
2.226133
1.817119
2.357262
1.556510
1.448746
2.826286
2.066410
