# vtk DataFile Version 2.0
Unstructured Grid Example
ASCII
DATASET UNSTRUCTURED_GRID
POINTS 2044 float
0.999693 0.149425 -0.003800 
-0.002615 0.993350 -0.046468 
-1.001054 0.152422 -0.000501 
-0.003394 -1.003672 0.052258 
-0.000882 -0.091834 1.003377 
1.008813 0.050603 -0.000299 
1.006828 -0.050168 0.004099 
0.994999 -0.151517 0.008500 
0.973375 -0.252532 0.013672 
0.939790 -0.351566 0.019589 
0.895965 -0.449937 0.023909 
0.842683 -0.542916 0.028264 
0.778166 -0.630371 0.032408 
0.705133 -0.712727 0.037431 
0.621856 -0.786848 0.040814 
0.530253 -0.850346 0.043505 
0.432040 -0.903314 0.046119 
0.328773 -0.947775 0.049053 
0.220801 -0.978769 0.051345 
0.109385 -0.997778 0.051092 
-0.115580 -0.994904 0.051301 
-0.226527 -0.975037 0.050458 
-0.333978 -0.941937 0.048129 
-0.437243 -0.898248 0.046066 
-0.533915 -0.842280 0.042581 
-0.624593 -0.779408 0.042624 
-0.707557 -0.706411 0.038978 
-0.781202 -0.624838 0.034550 
-0.845054 -0.537714 0.030732 
-0.900317 -0.446527 0.027004 
-0.943592 -0.348628 0.022831 
-0.976772 -0.249443 0.016501 
-0.999457 -0.148720 0.011849 
-1.010606 -0.047375 0.007511 
-1.010404 0.052849 0.003327 
-0.983669 0.248736 -0.004798 
-0.955640 0.341404 -0.008650 
-0.921338 0.428823 -0.014549 
-0.878647 0.511682 -0.018528 
-0.828123 0.589322 -0.023290 
-0.770429 0.660124 -0.029245 
-0.707230 0.724685 -0.033760 
-0.640286 0.781901 -0.036827 
-0.567353 0.832952 -0.040707 
-0.491856 0.875735 -0.040824 
-0.414464 0.913743 -0.041666 
-0.335658 0.943129 -0.042559 
-0.253642 0.965261 -0.045838 
-0.170298 0.979776 -0.047524 
-0.086971 0.990159 -0.045848 
0.080999 0.989867 -0.044729 
0.163910 0.980316 -0.045990 
0.248320 0.965663 -0.044873 
0.330602 0.943772 -0.043656 
0.411864 0.914232 -0.040947 
0.489940 0.876922 -0.038911 
0.565174 0.833055 -0.035617 
0.637919 0.783031 -0.030971 
0.705534 0.724958 -0.027153 
0.769382 0.660472 -0.025240 
0.827321 0.588947 -0.020714 
0.877638 0.511035 -0.016639 
0.920267 0.427164 -0.012878 
0.955202 0.338989 -0.009299 
0.982779 0.244544 -0.004940 
0.996423 0.150480 0.095208 
0.982470 0.146584 0.192086 
0.959100 0.136987 0.287407 
0.924387 0.125538 0.380812 
0.881276 0.109131 0.470050 
0.831435 0.089460 0.554626 
0.771417 0.066912 0.633689 
0.706509 0.042444 0.706926 
0.633773 0.016987 0.772594 
0.555357 -0.006934 0.832303 
0.471493 -0.029437 0.884039 
0.382623 -0.050772 0.927052 
0.290357 -0.066214 0.961762 
0.193578 -0.078599 0.983973 
0.097028 -0.088997 1.000096 
-0.000323 0.007433 0.999265 
-0.000593 0.106145 0.986376 
-0.001481 0.203291 0.960840 
-0.002639 0.299683 0.927226 
-0.002921 0.395918 0.885496 
-0.004565 0.486645 0.835093 
-0.001469 0.572390 0.774663 
0.001332 0.654866 0.706014 
0.000836 0.728694 0.631805 
0.000304 0.794796 0.549501 
-0.001756 0.851882 0.459418 
-0.003217 0.900707 0.364884 
-0.003236 0.940919 0.265980 
-0.003332 0.971879 0.164021 
-0.002665 0.989832 0.059364 
-0.097217 -0.089992 0.997778 
-0.193683 -0.082473 0.981200 
-0.289255 -0.070299 0.956864 
-0.381015 -0.054187 0.924625 
-0.469499 -0.031019 0.881788 
-0.553236 -0.006378 0.831385 
-0.632805 0.019822 0.773624 
-0.706068 0.046269 0.707932 
-0.771898 0.070515 0.635574 
-0.829571 0.093763 0.556094 
-0.880610 0.113045 0.471837 
-0.923816 0.129234 0.383707 
-0.957446 0.141758 0.291094 
-0.982302 0.149630 0.195752 
-0.996783 0.153903 0.097944 
0.001245 -0.189534 0.993566 
0.001185 -0.285254 0.976638 
0.001648 -0.378206 0.953177 
0.002215 -0.465664 0.918774 
0.001638 -0.546588 0.876612 
0.001819 -0.622228 0.825154 
0.002713 -0.694324 0.769429 
0.001903 -0.754591 0.704799 
0.002060 -0.813619 0.636405 
0.001057 -0.863407 0.562886 
-0.000829 -0.905063 0.486098 
-0.001071 -0.938793 0.403850 
-0.001490 -0.967336 0.318825 
-0.002360 -0.986978 0.231944 
-0.002609 -0.996079 0.143077 
0.718199 0.525719 0.453939 
0.313607 0.324611 0.866387 
0.292866 0.865791 0.356379 
0.850967 0.441543 0.309125 
0.898422 0.399641 0.232382 
0.927035 0.344369 0.208309 
0.946113 0.340590 0.125761 
0.456491 0.824071 0.301123 
0.487874 0.309842 0.795126 
0.246919 0.647637 0.679899 
0.657473 0.705207 0.271547 
0.689660 0.341676 0.630180 
0.686899 0.716876 0.168587 
0.737303 0.248799 0.623439 
0.185411 0.475953 0.822111 
0.183347 0.795179 0.526923 
0.778824 0.611208 0.197204 
0.802300 0.298938 0.518762 
0.122770 0.341825 0.902503 
0.115017 0.875690 0.402721 
0.355680 0.753236 0.510764 
0.363243 0.494368 0.756816 
0.367073 0.918184 0.121715 
0.410304 0.114580 0.895583 
0.838307 0.551518 0.141064 
0.867394 0.291167 0.416829 
0.084166 0.262989 0.939338 
0.075022 0.914912 0.324117 
0.240847 0.962040 0.076139 
0.276307 0.044278 0.957330 
0.891539 0.477997 0.074772 
0.918706 0.221412 0.347853 
0.511314 0.603331 0.581059 
0.079366 0.195797 0.961635 
0.069761 0.940657 0.254908 
0.190373 0.974356 0.046233 
0.220852 0.010613 0.975758 
0.951888 0.250908 0.228865 
0.925526 0.406964 0.061571 
0.972026 0.244974 0.134007 
0.605441 0.464624 0.628253 
0.589201 0.677027 0.417697 
0.466912 0.741058 0.446452 
0.483147 0.456900 0.722075 
0.703070 0.631922 0.332076 
0.717840 0.416672 0.552370 
0.649760 0.560016 0.496907 
0.343679 0.630428 0.658153 
0.316035 0.125688 0.931292 
0.281594 0.938114 0.154726 
0.337920 0.893729 0.248359 
0.369487 0.229389 0.883767 
0.297120 0.707173 0.600434 
0.298789 0.573668 0.727627 
0.411812 0.786794 0.415797 
0.433032 0.412635 0.777758 
0.248091 0.413953 0.842896 
0.237521 0.828394 0.455891 
0.415896 0.873680 0.220066 
0.453110 0.220392 0.845636 
0.272399 0.492332 0.790907 
0.267846 0.773626 0.527972 
0.211245 0.342339 0.887398 
0.197827 0.870900 0.391110 
0.793407 0.539939 0.302258 
0.827069 0.376477 0.427708 
0.401680 0.317477 0.836117 
0.375526 0.847701 0.329028 
0.324861 0.815476 0.431753 
0.341200 0.406058 0.815772 
0.090281 0.508485 0.817997 
0.090991 0.777002 0.566841 
0.185391 0.725131 0.615468 
0.185560 0.569470 0.761113 
0.067798 0.416659 0.872398 
0.065858 0.838478 0.477809 
0.611347 0.331138 0.705524 
0.576903 0.760186 0.285278 
0.436176 0.900756 0.038060 
0.492258 0.052235 0.864800 
0.152505 0.902714 0.332949 
0.168982 0.278763 0.923150 
0.185824 0.957132 0.158163 
0.210984 0.112748 0.962153 
0.386271 0.675959 0.586021 
0.378401 0.560563 0.702335 
0.249682 0.229059 0.923054 
0.225331 0.916945 0.271935 
0.902206 0.331171 0.307453 
0.872781 0.477846 0.186208 
0.154019 0.416813 0.860853 
0.149481 0.835191 0.474309 
0.367657 0.929407 0.017779 
0.420139 0.016515 0.906047 
0.305754 0.948198 0.046558 
0.351016 0.028739 0.934854 
0.052243 0.342719 0.906119 
0.049056 0.877157 0.406607 
0.091979 0.964782 0.167925 
0.104697 0.112485 0.979794 
0.148827 0.197948 0.952639 
0.132255 0.935283 0.252613 
0.560182 0.527113 0.614427 
0.553287 0.650509 0.492628 
0.493034 0.682011 0.508050 
0.500989 0.525647 0.661299 
0.684670 0.489468 0.530549 
0.684123 0.596557 0.414451 
0.586002 0.581363 0.537887 
0.491756 0.841990 0.205349 
0.534428 0.227665 0.799645 
0.752131 0.601686 0.291839 
0.772367 0.396348 0.498073 
0.615983 0.624919 0.456395 
0.625665 0.511924 0.571286 
0.735035 0.459339 0.493938 
0.660691 0.436666 0.598137 
0.640981 0.662834 0.372660 
0.427809 0.718285 0.509896 
0.437828 0.511483 0.712716 
0.785725 0.471401 0.405878 
0.741590 0.564876 0.369464 
0.866142 0.358028 0.370495 
0.916703 0.403845 0.147420 
0.506212 0.769313 0.359131 
0.532232 0.381284 0.735566 
0.606776 0.401087 0.669400 
0.581978 0.721041 0.355393 
0.454261 0.654942 0.568320 
0.431892 0.597810 0.643079 
0.154790 0.652185 0.696850 
0.532951 0.708908 0.432357 
0.548965 0.461282 0.674431 
0.084798 0.610778 0.744413 
0.086654 0.695470 0.665753 
0.615640 0.766204 0.202654 
0.658170 0.261673 0.695929 
0.982897 0.231643 0.058955 
0.518047 0.141516 0.832923 
0.468561 0.876257 0.124513 
0.731612 0.141869 0.666660 
0.672692 0.751387 0.061444 
0.749087 0.342609 0.562055 
0.722285 0.659394 0.241883 
0.738239 0.686155 0.090076 
0.789731 0.173594 0.591402 
0.134569 0.005684 0.991086 
0.116031 0.983211 0.052313 
0.888403 0.192899 0.428541 
0.847381 0.555764 0.056914 
0.802156 0.616473 0.072443 
0.846196 0.195581 0.502441 
0.827903 0.530591 0.228182 
0.580033 0.277890 0.751485 
0.540198 0.801660 0.242991 
0.049105 0.989626 0.019758 
0.059260 -0.030603 1.000289 
0.059427 0.038816 0.995551 
0.050130 0.983392 0.092941 
0.599581 0.807316 0.046019 
0.661554 0.105481 0.739338 
0.520244 0.857963 0.042775 
0.580671 0.078137 0.805255 
0.640382 0.769160 0.117319 
0.693012 0.186435 0.693249 
0.555271 0.824175 0.140109 
0.606003 0.182284 0.765671 
0.732013 0.671452 0.174847 
-0.411400 0.436140 0.770834 
-0.327887 0.867271 0.318152 
-0.817900 0.486854 0.327384 
-0.311445 0.267308 0.891925 
-0.238512 0.210349 0.929811 
-0.204884 0.129329 0.955713 
-0.156487 0.048676 0.979260 
-0.282806 0.777472 0.509397 
-0.752816 0.403945 0.514702 
-0.614682 0.745527 0.256447 
-0.259379 0.590851 0.721442 
-0.596407 0.309718 0.725608 
-0.167346 0.572912 0.760748 
-0.619635 0.212550 0.746409 
-0.472331 0.859101 0.182975 
-0.758938 0.638642 0.190418 
-0.192820 0.462849 0.831030 
-0.476589 0.195875 0.843445 
-0.366091 0.922655 0.103442 
-0.848351 0.544332 0.120049 
-0.699262 0.597615 0.392283 
-0.462365 0.778839 0.388213 
-0.133966 0.874026 0.407017 
-0.871873 0.272664 0.422176 
-0.149973 0.371902 0.886591 
-0.406706 0.119437 0.892786 
-0.299650 0.949756 0.052792 
-0.892697 0.479929 0.077456 
-0.099300 0.939968 0.256749 
-0.937097 0.252156 0.280355 
-0.342637 0.033071 0.932850 
-0.087805 0.273051 0.934271 
-0.532864 0.612128 0.559722 
-0.242874 0.965216 0.044823 
-0.921443 0.421317 0.073514 
-0.076195 0.961511 0.195340 
-0.958805 0.231187 0.222759 
-0.227347 0.031595 0.967151 
-0.103177 0.137599 0.971643 
-0.153684 -0.026582 0.987716 
-0.385728 0.615504 0.647973 
-0.583300 0.457031 0.650761 
-0.408738 0.725206 0.516232 
-0.668582 0.519625 0.518727 
-0.515687 0.342660 0.765109 
-0.315980 0.516445 0.760290 
-0.461690 0.498728 0.705380 
-0.586677 0.712150 0.370006 
-0.162718 0.915494 0.306355 
-0.900571 0.316092 0.324658 
-0.238341 0.870588 0.372254 
-0.844125 0.388690 0.385243 
[...]
POINT_DATA 2044
SCALARS u float 1
LOOKUP_TABLE default
6.524021
2.052007
6.652894
2.291284
4.011140
6.513975
6.429178
6.291351
6.106772
5.870722
5.501817
5.168247
4.778865
4.373208
3.916195
3.479066
3.081938
2.750614
2.507847
2.287325
2.366745
2.606876
2.911792
3.311341
3.727380
4.207141
4.641284
5.062231
5.430732
5.750688
6.078756
6.298249
6.472160
6.585512
6.619810
6.600857
6.490717
6.275411
6.020985
5.747929
5.436186
5.093660
4.663303
4.308534
3.826356
3.378016
2.892933
2.586967
2.339941
2.070024
2.101634
2.425228
2.708439
3.090617
3.454639
3.876245
4.290964
4.682747
5.069836
5.433292
5.728878
5.998701
6.210500
6.392072
6.421883
6.569288
6.399631
5.981067
5.479961
4.763627
3.904816
2.921462
1.852736
0.742126
0.304950
1.288150
2.220356
2.897660
3.434032
3.890545
3.957720
3.889918
3.801322
3.627450
3.300552
3.019083
2.707928
2.281380
1.937921
1.622499
1.413586
1.283045
1.278383
1.418180
1.707158
3.929622
3.600211
3.068640
2.366398
1.356420
0.296472
0.868335
2.020293
3.078539
4.093327
4.934391
5.640801
6.187372
6.531209
6.717683
3.995393
3.939823
3.841630
3.629970
3.290778
2.923474
2.623130
2.076624
1.776880
1.430787
1.197187
1.131072
1.327335
1.634355
1.970368
4.114312
2.415759
2.137795
5.502779
5.956554
6.148864
6.408757
3.186814
1.452769
1.923815
4.454096
2.817241
4.898088
3.018657
2.742619
1.577714
5.345037
4.132414
3.371590
1.504520
2.100387
2.026137
3.054519
1.828694
5.823473
5.046222
3.572169
1.421235
2.452006
2.994209
6.185109
5.582298
2.489568
3.676898
1.444746
2.285847
3.278440
6.186636
6.346620
6.493322
2.581793
3.520478
2.743430
1.816142
4.537985
3.544665
3.495255
1.937918
2.670291
2.496580
2.625929
2.119339
1.809991
2.012040
2.595056
1.695757
2.576831
1.719565
3.166644
1.514196
2.331951
1.764158
2.945924
1.677809
5.165602
4.801983
1.824395
2.606794
2.139110
2.147912
2.864839
1.701349
1.777349
2.353613
3.178921
1.503617
1.909375
3.950556
3.563384
0.995484
1.665104
3.267454
1.996119
3.338397
2.121928
1.983849
2.954931
1.996031
5.717804
5.949150
3.069041
1.466229
3.228543
1.794991
2.864695
2.465988
3.491803
1.465465
1.594265
3.749595
3.493120
1.646955
2.562643
3.028769
2.664504
2.155566
3.546514
4.094924
3.007702
3.644891
1.038432
4.984639
4.144033
3.525785
3.054738
4.006716
2.981037
4.011761
2.377521
1.903375
4.702804
4.621958
5.299058
6.237135
3.310827
1.689731
2.275811
3.763673
2.323504
2.055781
2.115752
3.156359
2.128855
2.408936
1.995741
4.420583
2.065631
6.531305
0.848169
3.650073
2.547738
4.935565
3.604723
4.903313
5.260696
3.469746
3.732439
1.945232
5.061293
5.928828
5.663625
4.433794
5.583187
1.359897
3.856495
1.879789
3.990508
3.938557
1.670421
4.506218
1.383102
4.050262
0.372486
4.726958
2.168645
4.175095
1.075171
5.131814
1.801833
2.204525
5.336370
2.497082
3.039649
3.374300
3.717709
1.821651
4.029084
4.142257
2.026931
1.732755
2.284308
1.385716
3.406198
5.337546
2.537914
1.295545
2.876150
5.980490
4.265421
2.721225
1.401004
5.248849
3.010101
1.946049
2.667475
6.221170
1.383367
6.137366
2.593010
3.522209
2.549082
2.414893
6.387266
1.408906
6.382832
3.393844
3.777184
3.788529
1.895050
2.291925
2.154011
3.504907
1.395415
2.044932
1.756576
3.599303
1.456274
5.815344
1.746861
5.293971
3.440097
4.272356
2.145418
4.137041
2.838933
5.335826
1.618700
4.593400
4.839597
3.116363
5.744641
2.601790
2.618747
1.793623
4.753866
1.965903
4.830523
2.424979
5.412399
3.854430
4.877265
3.924911
3.392232
5.750889
2.639843
1.860395
1.594138
4.646976
2.443214
6.051510
1.666962
6.310751
3.618613
2.999986
5.920772
1.956005
2.700790
5.682732
3.180615
1.298008
5.315433
1.246757
5.767360
5.982309
3.028930
1.993532
6.530570
6.288848
2.182995
2.055990
2.475398
3.011796
2.325107
1.811392
1.585791
2.068072
1.665996
3.826376
1.344800
2.197864
1.963715
1.878956
1.964762
1.896782
1.806116
3.090580
2.534197
3.616849
2.106391
1.591125
3.426570
1.906904
3.359922
1.871523
2.467221
3.118015
2.957221
4.535458
2.847890
1.998123
4.926184
4.478088
2.275086
1.969320
4.217923
1.619697
2.542268
1.271102
2.184870
1.146177
0.768131
2.719282
1.655459
6.619941
1.864484
3.309232
3.046351
0.947205
3.187855
1.776620
6.681483
1.854703
6.610636
1.977820
2.030016
2.156395
2.549049
1.773792
3.663208
0.470186
2.215315
1.996034
3.159175
1.779483
3.890117
3.937870
1.745628
5.562155
2.621273
2.622773
3.147146
3.489316
4.278479
1.951588
4.580316
1.811580
1.978614
1.259961
2.184226
5.647600
3.859019
1.057799
2.744853
6.290887
3.311310
3.257172
4.658568
5.313075
1.358954
1.930762
3.238038
6.507760
3.012693
6.205558
1.520161
3.526820
2.589930
2.899334
6.608154
2.729898
6.454331
1.620998
3.612203
3.160667
2.461450
2.022892
3.821743
2.493959
1.959358
1.571201
1.866941
4.118599
5.920822
1.716185
5.442035
1.929576
4.725319
3.942624
4.492092
2.566008
5.654598
3.321048
4.793920
1.669185
3.652824
5.231838
3.053890
6.001883
1.865112
2.367093
2.225496
5.010255
2.979397
5.162236
4.294680
5.744871
4.370679
5.251091
6.123433
3.778746
1.725982
2.760379
4.662553
1.297771
6.319957
2.878961
6.416998
2.027687
3.549467
4.216378
2.374600
6.094816
3.289881
2.855521
3.624108
5.981285
5.327129
1.194125
5.821310
1.260679
3.441696
6.328203
6.684396
2.335885
2.568409
6.526401
2.706775
2.371671
2.635483
3.356577
1.684845
1.846730
2.294978
3.955783
1.547277
2.215895
1.472098
2.083830
2.098502
1.578842
1.978122
1.865050
3.998380
2.952528
1.911281
1.968084
3.609572
2.003727
2.638689
1.862114
2.347372
3.139084
3.643822
4.907847
2.210276
3.130397
4.843258
5.288268
1.805362
2.317673
1.355610
4.281634
1.448496
2.421998
1.269169
2.302443
2.638637
0.504331
6.691250
1.962142
3.406410
1.813236
0.981795
3.084587
1.677027
3.294946
2.164638
6.709996
2.262974
6.701748
2.833004
2.569740
1.931009
1.532819
3.688788
2.865221
1.966615
1.991443
1.583249
3.207770
3.593485
3.912100
3.977583
3.791340
4.386144
2.249987
2.373222
5.691583
6.051841
6.270903
6.482546
6.597517
3.336075
1.517448
2.043500
4.713068
2.889758
5.100595
2.788305
1.738455
2.792419
5.539825
4.461315
1.434894
3.420849
2.051176
2.298520
3.108026
1.861697
5.136234
6.006177
1.342028
3.652578
2.492786
2.879800
6.260148
5.695687
2.677435
1.450198
3.776365
2.341969
3.262271
6.414668
6.185542
3.783336
2.707900
2.972761
1.967641
3.702709
4.757837
3.789406
2.071542
2.538933
2.633965
2.771342
2.169329
2.004272
2.132331
2.799341
1.878021
1.817508
2.638775
3.267747
1.486274
2.378653
1.936046
2.957478
1.696408
5.612442
4.888098
1.920004
2.802225
2.151312
2.311440
2.757656
1.571500
2.476068
1.944015
1.317150
3.204142
2.003653
4.140802
3.617617
1.027304
1.596604
3.337404
2.022180
3.280845
2.047961
2.219280
2.914246
1.997323
5.809883
6.132290
3.077668
1.582863
3.257451
1.801175
2.872309
2.449163
3.499886
1.212583
1.709923
3.864393
3.554934
1.628417
3.273672
2.687918
2.292720
2.905831
4.297024
3.834580
3.253271
3.740416
1.102320
4.254731
5.193742
3.226127
3.789091
4.772754
4.279624
3.101608
2.582302
2.066981
5.120010
4.378528
3.512375
1.784956
3.979289
2.373037
5.920349
2.252749
2.282965
2.213396
2.276099
3.383934
2.297029
1.938019
2.062554
4.588703
0.920024
3.728580
5.054490
2.662042
5.116371
3.613668
3.584912
5.425878
2.082182
3.771978
5.122371
6.077620
5.819002
4.316493
1.469743
3.988030
3.971048
2.097565
4.009988
1.862975
5.201613
4.604094
1.410260
4.112710
0.411947
3.507143
4.852995
2.126645
1.118664
4.284144
6.541415
6.435340
2.541907
2.281787
0.946215
1.174920
2.190385
1.971754
1.852976
2.115848
2.170574
2.212537
2.961376
1.451337
2.197103
1.352812
3.501898
2.491086
1.666105
3.587861
2.323724
3.086985
2.526762
2.533069
2.253288
4.057260
4.087067
2.312004
2.503461
3.226601
1.641516
2.335812
4.001964
3.371409
4.228751
2.678953
3.162014
3.367728
2.272646
1.383316
1.119308
1.869925
2.296314
1.171617
1.561394
1.216673
2.544632
4.843520
2.074478
4.668327
0.850295
5.018981
2.334110
4.620272
2.277014
2.316837
2.633876
4.118717
2.012074
2.099678
2.181023
2.965784
2.271792
2.354254
2.485710
4.974432
3.514584
1.930609
2.156545
2.246658
2.374862
2.616176
4.936187
2.506860
4.184780
3.309739
2.382366
2.239667
2.531511
2.061994
3.234834
1.298176
0.999760
0.521621
2.279210
2.719765
2.182812
2.776238
2.310001
2.429576
1.966831
4.458776
2.189952
1.892755
3.202108
2.340277
4.338731
3.308765
2.433814
2.261580
5.475459
1.520972
2.405423
5.395371
1.896303
5.193225
0.824436
1.805366
3.087995
2.114528
1.588656
2.880587
2.385481
3.117241
2.562541
2.273275
4.122566
2.170746
5.392533
0.592742
5.000285
2.162488
2.066385
2.340777
1.825398
5.302667
5.321211
4.103121
2.274544
4.919980
0.299344
2.558866
2.337256
2.320422
2.341756
3.178162
2.870706
3.051629
2.119916
2.425302
2.224661
2.147554
3.527022
3.038432
5.171668
4.306449
4.060674
2.229556
1.331092
2.757988
2.427648
1.767539
2.340566
3.769482
1.277248
2.003243
0.579558
1.515923
1.705423
2.374191
3.842927
5.693653
2.566429
2.346513
2.337044
2.374599
2.259281
3.037010
2.323173
2.404251
3.904615
1.852977
2.212104
2.871225
1.770091
1.511726
3.700669
0.903470
1.210335
2.319391
2.460581
2.343952
2.478364
5.809523
3.950327
3.943999
3.849987
2.270791
2.615733
2.464730
1.279074
5.478157
2.139564
2.714559
3.288107
2.364007
3.932351
1.534864
4.692116
5.208846
2.104792
3.008765
3.687863
4.656670
2.576451
2.074780
2.010597
2.408698
2.107768
4.317936
2.667715
1.347998
2.032653
5.561331
3.867701
2.331009
2.796860
5.567404
4.449017
2.750572
3.990833
1.169031
2.285124
2.189134
3.045532
5.439243
2.320192
2.311140
2.425248
2.112392
1.703145
2.459090
4.770485
2.689460
5.811498
4.593596
5.860134
2.121100
4.664759
2.249979
2.922319
2.269438
5.015974
5.721831
4.102501
5.683056
1.645299
2.340015
2.096321
3.122973
2.562288
3.683833
4.853728
2.534024
1.439603
1.837444
0.262840
2.465311
1.734355
3.772017
1.951768
3.265042
0.997130
4.391451
2.272817
2.412914
2.328387
2.653237
2.044919
2.209791
1.998216
2.441537
1.900936
2.112041
2.001169
3.846523
3.403649
5.053426
4.719156
3.782403
3.321735
3.705123
3.550212
4.771873
2.639127
2.248443
2.219814
1.985622
0.200794
2.277097
2.526293
1.982220
3.400629
2.367123
2.607223
1.689390
5.865573
1.694794
2.046383
2.247984
3.420015
3.711359
2.272138
0.911478
1.653271
1.471978
5.821483
2.046250
2.317614
2.327729
2.342095
4.508505
2.339461
1.819974
1.618086
2.480948
0.476987
0.957002
1.985302
2.056610
4.377597
2.849413
2.252943
2.740421
2.956973
1.781323
4.726656
3.884103
2.850959
1.206130
2.840160
3.104356
2.140094
2.350144
1.544093
2.235067
2.192892
3.527996
0.722636
1.145534
2.650608
4.960590
5.135196
1.719090
2.483116
5.730316
2.169829
1.932216
1.286197
3.454495
1.364473
4.040575
1.946764
2.335643
2.325365
3.490592
2.923106
2.124804
2.968662
2.062337
2.876473
2.896061
4.000032
3.489258
2.372439
2.040486
6.109219
2.043806
2.507699
2.423632
2.162934
3.433510
2.491078
2.394740
2.401701
2.463408
4.841887
6.027256
2.386358
2.480378
4.551779
2.329035
3.395636
1.698327
3.024614
4.549039
6.055486
2.240096
2.140491
3.579639
2.250240
3.575591
3.015203
1.820076
2.493766
2.178863
2.027991
1.915769
2.181887
2.204490
2.163127
5.884575
2.320694
1.894515
1.834927
2.964748
2.888650
1.563177
1.591065
1.759392
1.306144
1.996161
1.966423
2.202212
2.368736
1.986167
2.015233
5.509867
4.097030
4.610610
4.096701
2.074693
0.273733
0.479070
1.479039
0.413701
1.721104
1.729204
3.117152
5.532411
5.619193
2.715280
1.294955
2.228968
3.595764
3.679140
3.497725
3.633257
3.583351
3.204272
2.927236
3.551339
3.142428
2.924522
1.111101
2.476160
2.430015
3.522151
2.997419
2.312938
3.838382
3.651029
2.728896
3.144530
3.182862
2.761886
1.920344
2.607947
2.931474
2.741974
2.509739
2.139433
1.710619
2.842247
2.380968
1.901719
1.829349
2.067400
1.159949
2.431525
0.607003
2.050915
1.255233
2.347179
1.569461
2.734986
2.213009
1.321417
3.239151
2.072908
2.706792
2.375106
2.739445
1.030059
2.144457
2.282082
2.156468
2.423885
2.286102
4.074244
4.186251
3.361598
4.921790
1.533871
1.844172
2.903627
1.784692
2.495388
3.296064
2.273768
1.718103
4.466932
1.820556
1.998236
2.246963
2.417839
1.311076
1.939341
1.946252
1.684587
1.811519
2.685743
1.774511
1.928379
2.335330
1.898470
1.741174
1.707456
1.400665
1.209299
1.280806
1.785764
1.901938
3.499450
3.159806
2.194665
3.065581
2.172253
2.147738
2.026717
3.052022
2.154733
2.560318
3.618497
2.617043
3.234492
1.638095
4.776637
4.720494
5.630801
3.046928
3.250427
3.754030
3.601903
3.838557
0.681322
3.113091
2.188020
1.663028
4.359924
5.031352
2.410699
0.556459
2.004567
4.695061
2.371121
0.493150
2.754311
1.958263
0.359594
1.615381
2.405536
1.870288
1.662072
1.252590
1.168292
1.685826
0.621511
1.882342
2.293150
2.239423
1.802886
1.979031
1.147535
0.322703
1.734947
3.912073
2.705390
1.260968
1.552213
4.742550
1.732961
2.467373
1.801288
1.812457
2.740768
2.729709
1.356928
4.470844
2.484245
1.833865
2.286968
2.791832
3.705292
4.067419
1.658367
4.984138
4.088531
4.920423
5.101778
3.969313
3.867765
3.787768
2.961396
2.520890
3.828194
3.769382
3.818159
2.417613
3.598441
4.088535
1.689862
1.737047
2.551199
1.817848
1.965682
1.942623
3.333934
1.974560
1.900878
1.991972
1.846780
2.336410
1.638391
1.868959
1.606229
2.175726
1.790439
2.145790
2.122498
2.717329
1.944838
2.252400
2.127500
1.760466
1.194416
1.890111
1.814698
2.614312
1.786990
1.516880
1.743173
2.439946
1.693484
3.377851
3.038963
2.462339
3.636619
3.595070
3.237499
1.667382
2.416768
1.690981
1.798235
1.634573
1.713657
2.632031
2.973449
2.888915
2.956834
2.852183
1.304989
1.772810
3.891686
2.701523
1.266543
2.003455
1.838750
2.134401
3.323877
3.764537
2.885550
4.520577
2.961915
0.938432
4.763544
3.837402
1.863346
1.975634
1.977445
1.872353
1.911612
1.637940
2.003789
1.605547
3.617850
3.879812
3.846159
3.821746
3.828894
3.873281
3.619968
1.999294
2.302552
3.283347
5.136006
1.098971
2.479528
1.125976
1.809358
1.570307
4.302735
4.423092
3.561258
5.097305
2.276645
2.587643
2.445516
2.702895
2.472249
4.610033
3.197399
2.599869
1.731582
2.305353
3.073795
1.631940
1.545589
3.275306
2.286485
4.472029
1.696388
1.724695
1.789346
2.156388
1.945432
2.456181
1.490579
2.895265
1.941373
2.006628
3.389247
2.568406
1.911715
5.687651
0.957489
2.488349
2.122726
0.374918
1.691544
2.892278
2.298895
3.785663
1.756757
2.501946
2.081134
2.150358
2.255022
1.507069
1.319999
1.625572
1.782542
3.145922
1.340364
1.327886
3.499098
2.419706
1.652457
1.667866
1.769536
2.331580
1.690405
1.732116
1.535831
1.751254
1.086892
1.114006
2.342159
2.043982
2.237099
2.435795
1.422190
1.657116
1.394542
2.247404
2.036058
2.174720
2.281638
4.084245
1.971635
2.549567
2.130028
1.964006
1.565696
0.855830
1.937986
2.054497
0.864451
1.093241
1.936372
2.029157
3.823634
2.721488
3.078090
1.747850
2.826548
0.564587
0.912473
0.931235
2.087905
1.947377
2.130495
1.854115
1.974674
2.020821
2.720705
2.128836
2.859276
1.690103
1.843344
0.930776
1.717947
1.926879
2.047729
2.006775
2.105437
1.891633
2.163847
2.120173
2.066206
3.142373
2.957831
1.869623
2.167020
2.530552
1.894295
1.681919
1.867708
1.596914
5.210085
5.121410
2.015520
2.898927
0.737389
0.757548
0.716320
0.746284
1.851905
1.969534
4.265107
4.150946
4.192090
3.002069
3.331298
1.382843
1.447587
1.568733
2.632795
3.143391
3.041734
1.922760
2.334232
1.960963
1.847195
1.438176
1.716652
1.627852
3.422382
2.267037
1.738409
3.106796
2.943763
1.932213
2.083252
2.152777
2.224201
2.039059
2.023288
2.023819
1.895279
1.674489
3.760929
2.737638
3.762136
2.238210
1.951656
2.090623
2.072666
1.993156
2.122275
2.365686
2.005596
1.877110
2.046238
1.053357
0.302196
1.282886
1.724456
3.070608
3.051188
2.908940
1.683115
1.921591
2.102997
1.948814
1.516419
1.537889
2.390702
2.720013
2.315267
1.972730
0.405232
2.594679
2.857927
3.603895
5.068975
4.882240
4.843587
2.273498
2.243752
3.359444
2.636541
2.742804
2.581087
3.085555
2.214141
2.354737
2.473178
4.049556
3.701551
1.951209
2.273299
2.463242
2.243918
2.382713
2.422564
2.625123
1.893837
2.062114
1.944902
2.283748
1.872970
2.061008
1.958557
1.933803
1.633984
2.376528
3.290784
1.595670
1.334229
1.400814
1.103658
2.005272
1.907669
2.062544
2.033318
1.316807
3.861586
2.769280
2.147345
2.208573
2.292141
4.951838
1.952816
1.174549
1.690613
2.339288
1.578363
1.996158
1.939667
1.910382
1.904215
3.112437
2.974353
2.003736
2.122213
2.472148
2.366025
2.261388
1.985567
2.163332
1.896456
4.743838
4.635602
4.352584
2.756765
0.268362
0.200157
3.501424
4.232498
4.227965
3.697538
4.176611
1.981276
2.013193
1.834187
1.254870
1.352432
1.829793
2.053511
1.127868
1.656327
1.293770
1.451519
3.125895
3.279910
3.112865
1.924728
4.086523
3.941008
1.819843
1.904787
1.950916
1.348969
1.782407
0.260857
1.122988
2.202322
1.608162
1.561774
3.214463
2.373033
4.032325
1.682829
1.579831
1.943928
1.161349
1.005902
2.150343
2.100820
2.806744
2.706154
2.279895
3.192060
3.054779
1.892913
2.116033
1.719471
3.712522
2.633390
1.290890
2.320277
2.262347
2.512586
1.717869
1.671230
1.757098
1.999212
1.906159
1.962326
3.689574
3.633377
5.300740
3.627163
1.975313
1.916914
1.928765
2.883710
3.217373
3.943060
2.532167
3.182105
1.508553
1.228232
1.869556
1.575475
1.959585
3.811355
3.914187
3.724819
1.949237
1.822118
1.800589
2.301591
2.041987
1.038350
0.943265
1.442772
1.352810
1.635496
2.013073
1.820367
2.620911
2.091233
3.040241
1.826277
1.708439
3.510182
2.035659
2.153784
2.120829
1.720638
1.924221
0.591746
2.406088
2.268142
2.035536
2.029788
1.795195
1.820435
1.747208
3.913670
2.260380
1.740023
1.906717
2.012165
1.990655
1.635609
2.200752
2.300303
2.247445
1.925324
1.254165
1.101009
1.941225
1.978657
1.831312
4.830510
4.716051
2.058341
2.058380
1.957979
1.753630
2.933073
1.320589
2.379235
3.286901
1.847206
2.110035
1.887717
1.944686
1.869685
1.524670
1.705075
2.721919
2.606514
1.877837
1.313107
1.379077
4.007638
4.835292
1.732012
3.939795
1.956370
1.966685
2.109389
2.044894
1.677606
1.725556
2.470308
1.493586
1.691842
2.216601
2.085528
2.053669
1.546850
1.573159
1.744115
1.898189
1.839395
2.646320
2.640336
4.513546
1.949888
3.630882
2.739795
2.879490
2.884629
2.707861
2.790636
2.984219
2.680050
2.670460
2.595660
2.556285
3.255093
1.049700
0.648664
1.246639
1.492942
0.673783
2.030103
1.151938
0.896650
1.039687
1.563865
1.089284
2.012210
2.334229
2.440521
3.042940
2.812902
2.956188
2.013116
2.580434
1.960783
1.866683
2.429036
1.775999
2.819273
2.938431
2.424407
2.637747
1.967266
1.774163
2.560667
2.698024
2.510164
2.519972
2.793000
2.111138
2.737638
2.241624
2.396095
1.987316
1.684376
2.531317
1.098600
1.571572
2.072053
1.165438
1.677263
2.992664
2.741991
2.457988
2.583159
0.996525
2.735598
2.593632
2.156193
2.044641
2.090643
2.352972
1.780323
1.572419
1.574301
1.961042
1.688037
2.165661
1.381771
1.003006
1.377903
0.959736
1.812727
1.953046
1.726723
1.741064
1.999105
1.888662
1.751314
1.676045
2.339089
2.226133
1.817119
2.357262
1.556510
1.448746
2.826286
2.066410
