# vtk DataFile Version 2.0
Unstructured Grid Example
ASCII
DATASET UNSTRUCTURED_GRID
POINTS 2044 float
1.000664 -0.322776 0.008209 
0.005650 1.014366 0.100376 
-0.997723 -0.329249 0.001082 
0.007332 -0.992069 -0.112883 
0.001906 0.198372 0.992704 
0.965745 -0.419053 0.000645 
0.924530 -0.508140 -0.008854 
0.874730 -0.590040 -0.018360 
0.816965 -0.663825 -0.029533 
0.756919 -0.730245 -0.042314 
0.692153 -0.783749 -0.051647 
0.622510 -0.831996 -0.061053 
0.553611 -0.872865 -0.070005 
0.481588 -0.903229 -0.080855 
0.412386 -0.927858 -0.088162 
0.344261 -0.950127 -0.093975 
0.276067 -0.968303 -0.099621 
0.207144 -0.976738 -0.105959 
0.139552 -0.985140 -0.110911 
0.073462 -0.989582 -0.110365 
-0.060079 -0.995791 -0.110817 
-0.127184 -0.993202 -0.108996 
-0.195901 -0.989349 -0.103964 
-0.264829 -0.979247 -0.099509 
-0.336351 -0.967550 -0.091980 
-0.406474 -0.943928 -0.092072 
-0.476351 -0.916874 -0.084197 
-0.547054 -0.884817 -0.074632 
-0.617389 -0.843233 -0.066385 
-0.682752 -0.791116 -0.058332 
-0.748705 -0.736592 -0.049317 
-0.809627 -0.670498 -0.035644 
-0.865098 -0.596080 -0.025596 
-0.916370 -0.514173 -0.016226 
-0.962309 -0.423906 -0.007187 
-1.020059 -0.227553 0.010364 
-1.035102 -0.120965 0.018685 
-1.033845 -0.008974 0.031427 
-1.021586 0.104032 0.040023 
-0.998132 0.216666 0.050309 
-0.963325 0.329722 0.063172 
-0.915105 0.439353 0.072926 
-0.851446 0.545543 0.079550 
-0.779209 0.643530 0.087931 
-0.693200 0.735852 0.088185 
-0.594378 0.813184 0.090003 
-0.484263 0.882299 0.091932 
-0.369438 0.938967 0.099014 
-0.248644 0.982965 0.102656 
-0.121879 1.006042 0.099037 
0.134778 1.006671 0.096619 
0.262444 0.981799 0.099343 
0.380932 0.938098 0.096931 
0.495186 0.880909 0.094302 
0.599994 0.812125 0.088450 
0.697338 0.733288 0.084051 
0.783914 0.643307 0.076936 
0.856561 0.543101 0.066900 
0.918768 0.438764 0.058654 
0.965586 0.328971 0.054522 
0.999863 0.217476 0.044745 
1.023767 0.105430 0.035943 
1.036158 -0.005390 0.027818 
1.036048 -0.115748 0.020086 
1.021983 -0.218497 0.010671 
0.992511 -0.325053 0.104085 
0.977147 -0.316637 0.201580 
0.952276 -0.295907 0.296500 
0.922783 -0.271177 0.386726 
0.883316 -0.235735 0.474305 
0.831545 -0.193243 0.557610 
0.776452 -0.144537 0.635914 
0.708398 -0.091684 0.707498 
0.635733 -0.036693 0.773911 
0.556032 0.014977 0.829669 
0.471189 0.063587 0.877346 
0.382813 0.109674 0.917026 
0.290128 0.143029 0.946525 
0.198357 0.169783 0.973899 
0.100154 0.192243 0.984576 
0.000699 0.293689 0.986371 
0.001281 0.387223 0.968709 
0.003200 0.478200 0.948516 
0.005700 0.561974 0.916650 
0.006310 0.634440 0.874200 
0.009861 0.704457 0.823642 
0.003172 0.768326 0.769442 
-0.002878 0.819953 0.709467 
-0.001806 0.868740 0.639985 
-0.000656 0.910689 0.568679 
0.003794 0.946809 0.497273 
0.006948 0.973935 0.421132 
0.006990 0.991548 0.342786 
0.007197 1.000025 0.262204 
0.005756 1.006746 0.181513 
-0.099745 0.194393 0.989582 
-0.198131 0.178150 0.979890 
-0.292509 0.151854 0.957106 
-0.386288 0.117049 0.922269 
-0.475496 0.067005 0.882209 
-0.560612 0.013778 0.831652 
-0.637824 -0.042817 0.771686 
-0.709351 -0.099945 0.705323 
-0.775413 -0.152320 0.631842 
-0.835570 -0.202538 0.554440 
-0.884753 -0.244190 0.470446 
-0.924017 -0.279161 0.380472 
-0.955847 -0.306213 0.288537 
-0.977510 -0.323217 0.193662 
-0.991732 -0.332447 0.098175 
-0.002689 0.099670 0.998681 
-0.002560 -0.000327 0.989743 
-0.003560 -0.100366 0.965070 
-0.004784 -0.203435 0.934909 
-0.003537 -0.308975 0.893390 
-0.003929 -0.411583 0.845113 
-0.005860 -0.504935 0.780747 
-0.004110 -0.604536 0.712093 
-0.004450 -0.685291 0.630048 
-0.002284 -0.762482 0.539766 
0.001792 -0.831932 0.439641 
0.002313 -0.891666 0.336962 
0.003218 -0.934485 0.228635 
0.005097 -0.967407 0.115481 
0.005635 -0.993252 0.000684 
0.877520 0.274416 0.468069 
0.392361 0.480511 0.857137 
0.437164 0.858426 0.411888 
0.981839 0.065782 0.329385 
1.008926 -0.016737 0.252645 
1.014548 -0.091732 0.227111 
1.026426 -0.115860 0.148292 
0.654789 0.723416 0.362639 
0.586999 0.343804 0.785939 
0.343722 0.747774 0.678085 
0.864899 0.462843 0.318798 
0.795371 0.167311 0.624909 
0.899345 0.439766 0.230564 
0.810426 0.042843 0.621746 
0.261403 0.659174 0.812824 
0.265862 0.871001 0.549074 
0.963107 0.273898 0.242209 
0.886506 0.011838 0.520081 
0.165434 0.581808 0.889149 
0.182181 0.947067 0.450264 
0.506083 0.757280 0.532874 
0.489745 0.568291 0.749547 
0.545528 0.837496 0.224442 
0.452144 0.239855 0.886317 
1.001019 0.165053 0.185155 
0.939916 -0.066849 0.424026 
0.107423 0.520096 0.923638 
0.127177 0.976400 0.388052 
0.373073 0.932212 0.190784 
0.296476 0.259608 0.942388 
1.028760 0.053694 0.115727 
0.960017 -0.180550 0.356497 
0.680191 0.540809 0.588920 
0.097711 0.460846 0.944809 
0.118460 0.990125 0.333158 
0.299456 0.962582 0.170139 
0.233619 0.247082 0.959555 
0.997451 -0.194528 0.241079 
1.038194 -0.037307 0.094411 
1.014971 -0.222980 0.148103 
0.750950 0.347380 0.623438 
0.786030 0.518082 0.448747 
0.649187 0.669354 0.479447 
0.614117 0.456876 0.710360 
0.892052 0.365648 0.368641 
0.846188 0.194431 0.551449 
0.822870 0.376074 0.512397 
0.473625 0.683350 0.657981 
0.355046 0.314355 0.915116 
0.429443 0.900379 0.251630 
0.505535 0.847454 0.325239 
0.437345 0.366217 0.868974 
0.415847 0.762289 0.606730 
0.412243 0.664547 0.718105 
0.590122 0.742729 0.455366 
0.544285 0.462197 0.762247 
0.327118 0.582829 0.836303 
0.349948 0.867630 0.492239 
0.608933 0.779662 0.300462 
0.528548 0.299758 0.840238 
0.375344 0.625875 0.782240 
0.385178 0.819568 0.548887 
0.271538 0.546636 0.876403 
0.300524 0.912041 0.441284 
0.957789 0.205207 0.330734 
0.934407 0.045851 0.434266 
0.492086 0.413278 0.826273 
0.548582 0.801250 0.388326 
0.474630 0.813713 0.471162 
0.439337 0.526667 0.813073 
0.133874 0.710726 0.803104 
0.132340 0.891658 0.584671 
0.261072 0.828954 0.622732 
0.260707 0.722093 0.751228 
0.098722 0.644475 0.861558 
0.102913 0.934827 0.512384 
0.715585 0.240891 0.695459 
0.789986 0.577381 0.339969 
0.635501 0.782392 0.151295 
0.514359 0.120675 0.860061 
0.244153 0.951275 0.394403 
0.208560 0.511450 0.907132 
0.293883 0.957043 0.254133 
0.239534 0.352233 0.946197 
0.538706 0.689736 0.599316 
0.513957 0.607843 0.697844 
0.297760 0.436941 0.907383 
0.350360 0.920579 0.344323 
0.985061 -0.074259 0.319412 
1.010385 0.070909 0.217805 
0.211786 0.631129 0.850512 
0.221588 0.905945 0.506930 
0.547542 0.847771 0.142751 
0.434174 0.145480 0.898230 
0.464760 0.892583 0.167567 
0.366989 0.206058 0.921408 
0.079358 0.594020 0.900815 
0.086244 0.963376 0.456015 
0.150781 0.993741 0.262938 
0.123308 0.382694 0.961313 
0.177617 0.448731 0.937066 
0.213415 0.974557 0.330650 
0.723205 0.438546 0.612191 
0.738098 0.534248 0.513036 
0.670027 0.608077 0.528643 
0.652842 0.490633 0.652817 
0.837729 0.283322 0.533825 
0.862808 0.361448 0.440849 
0.764120 0.456733 0.550647 
0.701171 0.701067 0.282347 
0.608996 0.234133 0.792539 
0.932381 0.291040 0.327315 
0.890135 0.120404 0.500982 
0.807318 0.457585 0.479970 
0.786403 0.360020 0.573437 
0.879781 0.208021 0.500511 
0.798288 0.270410 0.594938 
0.840864 0.455185 0.408670 
0.595275 0.685877 0.533061 
0.573632 0.529632 0.697907 
0.930793 0.163699 0.420410 
0.912048 0.277975 0.394298 
0.960517 -0.013739 0.379507 
1.026628 -0.033404 0.173061 
0.708063 0.649306 0.407263 
0.651857 0.359410 0.722203 
0.735872 0.299031 0.661062 
0.789438 0.549509 0.397735 
0.618969 0.623254 0.581272 
0.580731 0.598076 0.641947 
0.218390 0.791525 0.694584 
0.725932 0.591044 0.465391 
0.691339 0.402908 0.665520 
0.120581 0.781123 0.733363 
0.118906 0.836319 0.665113 
0.832650 0.539406 0.265167 
0.739945 0.136503 0.692407 
1.019769 -0.239583 0.073261 
0.565972 0.179780 0.829739 
0.672867 0.736132 0.216518 
0.766070 -0.039214 0.659734 
0.890669 0.479102 0.139186 
0.853862 0.103587 0.564632 
0.914788 0.364912 0.289385 
0.940937 0.370733 0.157142 
0.828498 -0.074558 0.586062 
0.145278 0.275276 0.975801 
0.185321 0.992812 0.174552 
0.923751 -0.171820 0.432548 
1.011178 0.162441 0.109194 
0.985138 0.254479 0.132668 
0.887609 -0.122754 0.502944 
0.987643 0.160913 0.263224 
0.667771 0.233945 0.743408 
0.753968 0.634823 0.309559 
0.085346 1.010763 0.149231 
0.063410 0.258016 0.987729 
0.066910 0.323286 0.977184 
0.086993 1.003449 0.206369 
0.823243 0.588853 0.139266 
0.689492 0.009385 0.735732 
0.736863 0.689768 0.146609 
0.606284 0.069839 0.803695 
0.861234 0.518232 0.190734 
0.745785 0.038809 0.684555 
0.773483 0.631802 0.222290 
0.663487 0.130254 0.758716 
0.933128 0.364245 0.231684 
-0.520348 0.507553 0.763790 
-0.473436 0.855228 0.382545 
-0.961875 0.130049 0.362603 
-0.373835 0.436381 0.877477 
-0.282735 0.425707 0.919821 
-0.235581 0.371680 0.952597 
-0.170126 0.317466 0.974914 
-0.402205 0.824074 0.540506 
-0.877333 0.140530 0.529047 
-0.818961 0.536320 0.323141 
-0.345081 0.709865 0.726719 
-0.697863 0.236344 0.717720 
-0.219282 0.729935 0.760447 
-0.685034 0.136681 0.740692 
-0.666998 0.732922 0.266664 
-0.949286 0.307747 0.250588 
-0.237592 0.640968 0.825248 
-0.538996 0.265220 0.833694 
-0.529390 0.845618 0.207186 
-1.006123 0.144369 0.171312 
-0.873870 0.345266 0.427017 
-0.637422 0.701975 0.435807 
-0.197978 0.932882 0.459245 
-0.937534 -0.101625 0.426501 
-0.187367 0.586374 0.876553 
-0.454580 0.251940 0.890895 
-0.440905 0.901134 0.175195 
-1.024386 0.051482 0.121918 
-0.140754 0.979891 0.338722 
-0.986093 -0.189433 0.287731 
-0.367737 0.219106 0.930192 
-0.099146 0.527595 0.923686 
-0.693025 0.521807 0.575625 
-0.359155 0.937074 0.172327 
-1.031630 -0.026304 0.110353 
-0.105417 0.990330 0.288727 
-0.996174 -0.229383 0.229500 
-0.245993 0.276594 0.964383 
-0.117624 0.410528 0.962098 
-0.162818 0.247499 0.981766 
-0.517803 0.650979 0.659075 
-0.720542 0.363781 0.653053 
-0.560913 0.703598 0.542649 
-0.825911 0.321383 0.537260 
-0.616394 0.346470 0.757969 
-0.411935 0.629052 0.754492 
-0.588469 0.508463 0.702726 
-0.777858 0.541341 0.416756 
-0.234367 0.949242 0.375957 
-0.981478 -0.096939 0.336420 
-0.346879 0.897443 0.431369 
-0.954605 0.022107 0.403312 
[...]
POINT_DATA 2044
SCALARS u float 1
LOOKUP_TABLE default
6.524021
2.052007
6.652894
2.291284
4.011140
6.513975
6.429178
6.291351
6.106772
5.870722
5.501817
5.168247
4.778865
4.373208
3.916195
3.479066
3.081938
2.750614
2.507847
2.287325
2.366745
2.606876
2.911792
3.311341
3.727380
4.207141
4.641284
5.062231
5.430732
5.750688
6.078756
6.298249
6.472160
6.585512
6.619810
6.600857
6.490717
6.275411
6.020985
5.747929
5.436186
5.093660
4.663303
4.308534
3.826356
3.378016
2.892933
2.586967
2.339941
2.070024
2.101634
2.425228
2.708439
3.090617
3.454639
3.876245
4.290964
4.682747
5.069836
5.433292
5.728878
5.998701
6.210500
6.392072
6.421883
6.569288
6.399631
5.981067
5.479961
4.763627
3.904816
2.921462
1.852736
0.742126
0.304950
1.288150
2.220356
2.897660
3.434032
3.890545
3.957720
3.889918
3.801322
3.627450
3.300552
3.019083
2.707928
2.281380
1.937921
1.622499
1.413586
1.283045
1.278383
1.418180
1.707158
3.929622
3.600211
3.068640
2.366398
1.356420
0.296472
0.868335
2.020293
3.078539
4.093327
4.934391
5.640801
6.187372
6.531209
6.717683
3.995393
3.939823
3.841630
3.629970
3.290778
2.923474
2.623130
2.076624
1.776880
1.430787
1.197187
1.131072
1.327335
1.634355
1.970368
4.114312
2.415759
2.137795
5.502779
5.956554
6.148864
6.408757
3.186814
1.452769
1.923815
4.454096
2.817241
4.898088
3.018657
2.742619
1.577714
5.345037
4.132414
3.371590
1.504520
2.100387
2.026137
3.054519
1.828694
5.823473
5.046222
3.572169
1.421235
2.452006
2.994209
6.185109
5.582298
2.489568
3.676898
1.444746
2.285847
3.278440
6.186636
6.346620
6.493322
2.581793
3.520478
2.743430
1.816142
4.537985
3.544665
3.495255
1.937918
2.670291
2.496580
2.625929
2.119339
1.809991
2.012040
2.595056
1.695757
2.576831
1.719565
3.166644
1.514196
2.331951
1.764158
2.945924
1.677809
5.165602
4.801983
1.824395
2.606794
2.139110
2.147912
2.864839
1.701349
1.777349
2.353613
3.178921
1.503617
1.909375
3.950556
3.563384
0.995484
1.665104
3.267454
1.996119
3.338397
2.121928
1.983849
2.954931
1.996031
5.717804
5.949150
3.069041
1.466229
3.228543
1.794991
2.864695
2.465988
3.491803
1.465465
1.594265
3.749595
3.493120
1.646955
2.562643
3.028769
2.664504
2.155566
3.546514
4.094924
3.007702
3.644891
1.038432
4.984639
4.144033
3.525785
3.054738
4.006716
2.981037
4.011761
2.377521
1.903375
4.702804
4.621958
5.299058
6.237135
3.310827
1.689731
2.275811
3.763673
2.323504
2.055781
2.115752
3.156359
2.128855
2.408936
1.995741
4.420583
2.065631
6.531305
0.848169
3.650073
2.547738
4.935565
3.604723
4.903313
5.260696
3.469746
3.732439
1.945232
5.061293
5.928828
5.663625
4.433794
5.583187
1.359897
3.856495
1.879789
3.990508
3.938557
1.670421
4.506218
1.383102
4.050262
0.372486
4.726958
2.168645
4.175095
1.075171
5.131814
1.801833
2.204525
5.336370
2.497082
3.039649
3.374300
3.717709
1.821651
4.029084
4.142257
2.026931
1.732755
2.284308
1.385716
3.406198
5.337546
2.537914
1.295545
2.876150
5.980490
4.265421
2.721225
1.401004
5.248849
3.010101
1.946049
2.667475
6.221170
1.383367
6.137366
2.593010
3.522209
2.549082
2.414893
6.387266
1.408906
6.382832
3.393844
3.777184
3.788529
1.895050
2.291925
2.154011
3.504907
1.395415
2.044932
1.756576
3.599303
1.456274
5.815344
1.746861
5.293971
3.440097
4.272356
2.145418
4.137041
2.838933
5.335826
1.618700
4.593400
4.839597
3.116363
5.744641
2.601790
2.618747
1.793623
4.753866
1.965903
4.830523
2.424979
5.412399
3.854430
4.877265
3.924911
3.392232
5.750889
2.639843
1.860395
1.594138
4.646976
2.443214
6.051510
1.666962
6.310751
3.618613
2.999986
5.920772
1.956005
2.700790
5.682732
3.180615
1.298008
5.315433
1.246757
5.767360
5.982309
3.028930
1.993532
6.530570
6.288848
2.182995
2.055990
2.475398
3.011796
2.325107
1.811392
1.585791
2.068072
1.665996
3.826376
1.344800
2.197864
1.963715
1.878956
1.964762
1.896782
1.806116
3.090580
2.534197
3.616849
2.106391
1.591125
3.426570
1.906904
3.359922
1.871523
2.467221
3.118015
2.957221
4.535458
2.847890
1.998123
4.926184
4.478088
2.275086
1.969320
4.217923
1.619697
2.542268
1.271102
2.184870
1.146177
0.768131
2.719282
1.655459
6.619941
1.864484
3.309232
3.046351
0.947205
3.187855
1.776620
6.681483
1.854703
6.610636
1.977820
2.030016
2.156395
2.549049
1.773792
3.663208
0.470186
2.215315
1.996034
3.159175
1.779483
3.890117
3.937870
1.745628
5.562155
2.621273
2.622773
3.147146
3.489316
4.278479
1.951588
4.580316
1.811580
1.978614
1.259961
2.184226
5.647600
3.859019
1.057799
2.744853
6.290887
3.311310
3.257172
4.658568
5.313075
1.358954
1.930762
3.238038
6.507760
3.012693
6.205558
1.520161
3.526820
2.589930
2.899334
6.608154
2.729898
6.454331
1.620998
3.612203
3.160667
2.461450
2.022892
3.821743
2.493959
1.959358
1.571201
1.866941
4.118599
5.920822
1.716185
5.442035
1.929576
4.725319
3.942624
4.492092
2.566008
5.654598
3.321048
4.793920
1.669185
3.652824
5.231838
3.053890
6.001883
1.865112
2.367093
2.225496
5.010255
2.979397
5.162236
4.294680
5.744871
4.370679
5.251091
6.123433
3.778746
1.725982
2.760379
4.662553
1.297771
6.319957
2.878961
6.416998
2.027687
3.549467
4.216378
2.374600
6.094816
3.289881
2.855521
3.624108
5.981285
5.327129
1.194125
5.821310
1.260679
3.441696
6.328203
6.684396
2.335885
2.568409
6.526401
2.706775
2.371671
2.635483
3.356577
1.684845
1.846730
2.294978
3.955783
1.547277
2.215895
1.472098
2.083830
2.098502
1.578842
1.978122
1.865050
3.998380
2.952528
1.911281
1.968084
3.609572
2.003727
2.638689
1.862114
2.347372
3.139084
3.643822
4.907847
2.210276
3.130397
4.843258
5.288268
1.805362
2.317673
1.355610
4.281634
1.448496
2.421998
1.269169
2.302443
2.638637
0.504331
6.691250
1.962142
3.406410
1.813236
0.981795
3.084587
1.677027
3.294946
2.164638
6.709996
2.262974
6.701748
2.833004
2.569740
1.931009
1.532819
3.688788
2.865221
1.966615
1.991443
1.583249
3.207770
3.593485
3.912100
3.977583
3.791340
4.386144
2.249987
2.373222
5.691583
6.051841
6.270903
6.482546
6.597517
3.336075
1.517448
2.043500
4.713068
2.889758
5.100595
2.788305
1.738455
2.792419
5.539825
4.461315
1.434894
3.420849
2.051176
2.298520
3.108026
1.861697
5.136234
6.006177
1.342028
3.652578
2.492786
2.879800
6.260148
5.695687
2.677435
1.450198
3.776365
2.341969
3.262271
6.414668
6.185542
3.783336
2.707900
2.972761
1.967641
3.702709
4.757837
3.789406
2.071542
2.538933
2.633965
2.771342
2.169329
2.004272
2.132331
2.799341
1.878021
1.817508
2.638775
3.267747
1.486274
2.378653
1.936046
2.957478
1.696408
5.612442
4.888098
1.920004
2.802225
2.151312
2.311440
2.757656
1.571500
2.476068
1.944015
1.317150
3.204142
2.003653
4.140802
3.617617
1.027304
1.596604
3.337404
2.022180
3.280845
2.047961
2.219280
2.914246
1.997323
5.809883
6.132290
3.077668
1.582863
3.257451
1.801175
2.872309
2.449163
3.499886
1.212583
1.709923
3.864393
3.554934
1.628417
3.273672
2.687918
2.292720
2.905831
4.297024
3.834580
3.253271
3.740416
1.102320
4.254731
5.193742
3.226127
3.789091
4.772754
4.279624
3.101608
2.582302
2.066981
5.120010
4.378528
3.512375
1.784956
3.979289
2.373037
5.920349
2.252749
2.282965
2.213396
2.276099
3.383934
2.297029
1.938019
2.062554
4.588703
0.920024
3.728580
5.054490
2.662042
5.116371
3.613668
3.584912
5.425878
2.082182
3.771978
5.122371
6.077620
5.819002
4.316493
1.469743
3.988030
3.971048
2.097565
4.009988
1.862975
5.201613
4.604094
1.410260
4.112710
0.411947
3.507143
4.852995
2.126645
1.118664
4.284144
6.541415
6.435340
2.541907
2.281787
0.946215
1.174920
2.190385
1.971754
1.852976
2.115848
2.170574
2.212537
2.961376
1.451337
2.197103
1.352812
3.501898
2.491086
1.666105
3.587861
2.323724
3.086985
2.526762
2.533069
2.253288
4.057260
4.087067
2.312004
2.503461
3.226601
1.641516
2.335812
4.001964
3.371409
4.228751
2.678953
3.162014
3.367728
2.272646
1.383316
1.119308
1.869925
2.296314
1.171617
1.561394
1.216673
2.544632
4.843520
2.074478
4.668327
0.850295
5.018981
2.334110
4.620272
2.277014
2.316837
2.633876
4.118717
2.012074
2.099678
2.181023
2.965784
2.271792
2.354254
2.485710
4.974432
3.514584
1.930609
2.156545
2.246658
2.374862
2.616176
4.936187
2.506860
4.184780
3.309739
2.382366
2.239667
2.531511
2.061994
3.234834
1.298176
0.999760
0.521621
2.279210
2.719765
2.182812
2.776238
2.310001
2.429576
1.966831
4.458776
2.189952
1.892755
3.202108
2.340277
4.338731
3.308765
2.433814
2.261580
5.475459
1.520972
2.405423
5.395371
1.896303
5.193225
0.824436
1.805366
3.087995
2.114528
1.588656
2.880587
2.385481
3.117241
2.562541
2.273275
4.122566
2.170746
5.392533
0.592742
5.000285
2.162488
2.066385
2.340777
1.825398
5.302667
5.321211
4.103121
2.274544
4.919980
0.299344
2.558866
2.337256
2.320422
2.341756
3.178162
2.870706
3.051629
2.119916
2.425302
2.224661
2.147554
3.527022
3.038432
5.171668
4.306449
4.060674
2.229556
1.331092
2.757988
2.427648
1.767539
2.340566
3.769482
1.277248
2.003243
0.579558
1.515923
1.705423
2.374191
3.842927
5.693653
2.566429
2.346513
2.337044
2.374599
2.259281
3.037010
2.323173
2.404251
3.904615
1.852977
2.212104
2.871225
1.770091
1.511726
3.700669
0.903470
1.210335
2.319391
2.460581
2.343952
2.478364
5.809523
3.950327
3.943999
3.849987
2.270791
2.615733
2.464730
1.279074
5.478157
2.139564
2.714559
3.288107
2.364007
3.932351
1.534864
4.692116
5.208846
2.104792
3.008765
3.687863
4.656670
2.576451
2.074780
2.010597
2.408698
2.107768
4.317936
2.667715
1.347998
2.032653
5.561331
3.867701
2.331009
2.796860
5.567404
4.449017
2.750572
3.990833
1.169031
2.285124
2.189134
3.045532
5.439243
2.320192
2.311140
2.425248
2.112392
1.703145
2.459090
4.770485
2.689460
5.811498
4.593596
5.860134
2.121100
4.664759
2.249979
2.922319
2.269438
5.015974
5.721831
4.102501
5.683056
1.645299
2.340015
2.096321
3.122973
2.562288
3.683833
4.853728
2.534024
1.439603
1.837444
0.262840
2.465311
1.734355
3.772017
1.951768
3.265042
0.997130
4.391451
2.272817
2.412914
2.328387
2.653237
2.044919
2.209791
1.998216
2.441537
1.900936
2.112041
2.001169
3.846523
3.403649
5.053426
4.719156
3.782403
3.321735
3.705123
3.550212
4.771873
2.639127
2.248443
2.219814
1.985622
0.200794
2.277097
2.526293
1.982220
3.400629
2.367123
2.607223
1.689390
5.865573
1.694794
2.046383
2.247984
3.420015
3.711359
2.272138
0.911478
1.653271
1.471978
5.821483
2.046250
2.317614
2.327729
2.342095
4.508505
2.339461
1.819974
1.618086
2.480948
0.476987
0.957002
1.985302
2.056610
4.377597
2.849413
2.252943
2.740421
2.956973
1.781323
4.726656
3.884103
2.850959
1.206130
2.840160
3.104356
2.140094
2.350144
1.544093
2.235067
2.192892
3.527996
0.722636
1.145534
2.650608
4.960590
5.135196
1.719090
2.483116
5.730316
2.169829
1.932216
1.286197
3.454495
1.364473
4.040575
1.946764
2.335643
2.325365
3.490592
2.923106
2.124804
2.968662
2.062337
2.876473
2.896061
4.000032
3.489258
2.372439
2.040486
6.109219
2.043806
2.507699
2.423632
2.162934
3.433510
2.491078
2.394740
2.401701
2.463408
4.841887
6.027256
2.386358
2.480378
4.551779
2.329035
3.395636
1.698327
3.024614
4.549039
6.055486
2.240096
2.140491
3.579639
2.250240
3.575591
3.015203
1.820076
2.493766
2.178863
2.027991
1.915769
2.181887
2.204490
2.163127
5.884575
2.320694
1.894515
1.834927
2.964748
2.888650
1.563177
1.591065
1.759392
1.306144
1.996161
1.966423
2.202212
2.368736
1.986167
2.015233
5.509867
4.097030
4.610610
4.096701
2.074693
0.273733
0.479070
1.479039
0.413701
1.721104
1.729204
3.117152
5.532411
5.619193
2.715280
1.294955
2.228968
3.595764
3.679140
3.497725
3.633257
3.583351
3.204272
2.927236
3.551339
3.142428
2.924522
1.111101
2.476160
2.430015
3.522151
2.997419
2.312938
3.838382
3.651029
2.728896
3.144530
3.182862
2.761886
1.920344
2.607947
2.931474
2.741974
2.509739
2.139433
1.710619
2.842247
2.380968
1.901719
1.829349
2.067400
1.159949
2.431525
0.607003
2.050915
1.255233
2.347179
1.569461
2.734986
2.213009
1.321417
3.239151
2.072908
2.706792
2.375106
2.739445
1.030059
2.144457
2.282082
2.156468
2.423885
2.286102
4.074244
4.186251
3.361598
4.921790
1.533871
1.844172
2.903627
1.784692
2.495388
3.296064
2.273768
1.718103
4.466932
1.820556
1.998236
2.246963
2.417839
1.311076
1.939341
1.946252
1.684587
1.811519
2.685743
1.774511
1.928379
2.335330
1.898470
1.741174
1.707456
1.400665
1.209299
1.280806
1.785764
1.901938
3.499450
3.159806
2.194665
3.065581
2.172253
2.147738
2.026717
3.052022
2.154733
2.560318
3.618497
2.617043
3.234492
1.638095
4.776637
4.720494
5.630801
3.046928
3.250427
3.754030
3.601903
3.838557
0.681322
3.113091
2.188020
1.663028
4.359924
5.031352
2.410699
0.556459
2.004567
4.695061
2.371121
0.493150
2.754311
1.958263
0.359594
1.615381
2.405536
1.870288
1.662072
1.252590
1.168292
1.685826
0.621511
1.882342
2.293150
2.239423
1.802886
1.979031
1.147535
0.322703
1.734947
3.912073
2.705390
1.260968
1.552213
4.742550
1.732961
2.467373
1.801288
1.812457
2.740768
2.729709
1.356928
4.470844
2.484245
1.833865
2.286968
2.791832
3.705292
4.067419
1.658367
4.984138
4.088531
4.920423
5.101778
3.969313
3.867765
3.787768
2.961396
2.520890
3.828194
3.769382
3.818159
2.417613
3.598441
4.088535
1.689862
1.737047
2.551199
1.817848
1.965682
1.942623
3.333934
1.974560
1.900878
1.991972
1.846780
2.336410
1.638391
1.868959
1.606229
2.175726
1.790439
2.145790
2.122498
2.717329
1.944838
2.252400
2.127500
1.760466
1.194416
1.890111
1.814698
2.614312
1.786990
1.516880
1.743173
2.439946
1.693484
3.377851
3.038963
2.462339
3.636619
3.595070
3.237499
1.667382
2.416768
1.690981
1.798235
1.634573
1.713657
2.632031
2.973449
2.888915
2.956834
2.852183
1.304989
1.772810
3.891686
2.701523
1.266543
2.003455
1.838750
2.134401
3.323877
3.764537
2.885550
4.520577
2.961915
0.938432
4.763544
3.837402
1.863346
1.975634
1.977445
1.872353
1.911612
1.637940
2.003789
1.605547
3.617850
3.879812
3.846159
3.821746
3.828894
3.873281
3.619968
1.999294
2.302552
3.283347
5.136006
1.098971
2.479528
1.125976
1.809358
1.570307
4.302735
4.423092
3.561258
5.097305
2.276645
2.587643
2.445516
2.702895
2.472249
4.610033
3.197399
2.599869
1.731582
2.305353
3.073795
1.631940
1.545589
3.275306
2.286485
4.472029
1.696388
1.724695
1.789346
2.156388
1.945432
2.456181
1.490579
2.895265
1.941373
2.006628
3.389247
2.568406
1.911715
5.687651
0.957489
2.488349
2.122726
0.374918
1.691544
2.892278
2.298895
3.785663
1.756757
2.501946
2.081134
2.150358
2.255022
1.507069
1.319999
1.625572
1.782542
3.145922
1.340364
1.327886
3.499098
2.419706
1.652457
1.667866
1.769536
2.331580
1.690405
1.732116
1.535831
1.751254
1.086892
1.114006
2.342159
2.043982
2.237099
2.435795
1.422190
1.657116
1.394542
2.247404
2.036058
2.174720
2.281638
4.084245
1.971635
2.549567
2.130028
1.964006
1.565696
0.855830
1.937986
2.054497
0.864451
1.093241
1.936372
2.029157
3.823634
2.721488
3.078090
1.747850
2.826548
0.564587
0.912473
0.931235
2.087905
1.947377
2.130495
1.854115
1.974674
2.020821
2.720705
2.128836
2.859276
1.690103
1.843344
0.930776
1.717947
1.926879
2.047729
2.006775
2.105437
1.891633
2.163847
2.120173
2.066206
3.142373
2.957831
1.869623
2.167020
2.530552
1.894295
1.681919
1.867708
1.596914
5.210085
5.121410
2.015520
2.898927
0.737389
0.757548
0.716320
0.746284
1.851905
1.969534
4.265107
4.150946
4.192090
3.002069
3.331298
1.382843
1.447587
1.568733
2.632795
3.143391
3.041734
1.922760
2.334232
1.960963
1.847195
1.438176
1.716652
1.627852
3.422382
2.267037
1.738409
3.106796
2.943763
1.932213
2.083252
2.152777
2.224201
2.039059
2.023288
2.023819
1.895279
1.674489
3.760929
2.737638
3.762136
2.238210
1.951656
2.090623
2.072666
1.993156
2.122275
2.365686
2.005596
1.877110
2.046238
1.053357
0.302196
1.282886
1.724456
3.070608
3.051188
2.908940
1.683115
1.921591
2.102997
1.948814
1.516419
1.537889
2.390702
2.720013
2.315267
1.972730
0.405232
2.594679
2.857927
3.603895
5.068975
4.882240
4.843587
2.273498
2.243752
3.359444
2.636541
2.742804
2.581087
3.085555
2.214141
2.354737
2.473178
4.049556
3.701551
1.951209
2.273299
2.463242
2.243918
2.382713
2.422564
2.625123
1.893837
2.062114
1.944902
2.283748
1.872970
2.061008
1.958557
1.933803
1.633984
2.376528
3.290784
1.595670
1.334229
1.400814
1.103658
2.005272
1.907669
2.062544
2.033318
1.316807
3.861586
2.769280
2.147345
2.208573
2.292141
4.951838
1.952816
1.174549
1.690613
2.339288
1.578363
1.996158
1.939667
1.910382
1.904215
3.112437
2.974353
2.003736
2.122213
2.472148
2.366025
2.261388
1.985567
2.163332
1.896456
4.743838
4.635602
4.352584
2.756765
0.268362
0.200157
3.501424
4.232498
4.227965
3.697538
4.176611
1.981276
2.013193
1.834187
1.254870
1.352432
1.829793
2.053511
1.127868
1.656327
1.293770
1.451519
3.125895
3.279910
3.112865
1.924728
4.086523
3.941008
1.819843
1.904787
1.950916
1.348969
1.782407
0.260857
1.122988
2.202322
1.608162
1.561774
3.214463
2.373033
4.032325
1.682829
1.579831
1.943928
1.161349
1.005902
2.150343
2.100820
2.806744
2.706154
2.279895
3.192060
3.054779
1.892913
2.116033
1.719471
3.712522
2.633390
1.290890
2.320277
2.262347
2.512586
1.717869
1.671230
1.757098
1.999212
1.906159
1.962326
3.689574
3.633377
5.300740
3.627163
1.975313
1.916914
1.928765
2.883710
3.217373
3.943060
2.532167
3.182105
1.508553
1.228232
1.869556
1.575475
1.959585
3.811355
3.914187
3.724819
1.949237
1.822118
1.800589
2.301591
2.041987
1.038350
0.943265
1.442772
1.352810
1.635496
2.013073
1.820367
2.620911
2.091233
3.040241
1.826277
1.708439
3.510182
2.035659
2.153784
2.120829
1.720638
1.924221
0.591746
2.406088
2.268142
2.035536
2.029788
1.795195
1.820435
1.747208
3.913670
2.260380
1.740023
1.906717
2.012165
1.990655
1.635609
2.200752
2.300303
2.247445
1.925324
1.254165
1.101009
1.941225
1.978657
1.831312
4.830510
4.716051
2.058341
2.058380
1.957979
1.753630
2.933073
1.320589
2.379235
3.286901
1.847206
2.110035
1.887717
1.944686
1.869685
1.524670
1.705075
2.721919
2.606514
1.877837
1.313107
1.379077
4.007638
4.835292
1.732012
3.939795
1.956370
1.966685
2.109389
2.044894
1.677606
1.725556
2.470308
1.493586
1.691842
2.216601
2.085528
2.053669
1.546850
1.573159
1.744115
1.898189
1.839395
2.646320
2.640336
4.513546
1.949888
3.630882
2.739795
2.879490
2.884629
2.707861
2.790636
2.984219
2.680050
2.670460
2.595660
2.556285
3.255093
1.049700
0.648664
1.246639
1.492942
0.673783
2.030103
1.151938
0.896650
1.039687
1.563865
1.089284
2.012210
2.334229
2.440521
3.042940
2.812902
2.956188
2.013116
2.580434
1.960783
1.866683
2.429036
1.775999
2.819273
2.938431
2.424407
2.637747
1.967266
1.774163
2.560667
2.698024
2.510164
2.519972
2.793000
2.111138
2.737638
2.241624
2.396095
1.987316
1.684376
2.531317
1.098600
1.571572
2.072053
1.165438
1.677263
2.992664
2.741991
2.457988
2.583159
0.996525
2.735598
2.593632
2.156193
2.044641
2.090643
2.352972
1.780323
1.572419
1.574301
1.961042
1.688037
2.165661
1.381771
1.003006
1.377903
0.959736
1.812727
1.953046
1.726723
1.741064
1.999105
1.888662
1.751314
1.676045
2.339089
2.226133
1.817119
2.357262
1.556510
1.448746
2.826286
2.066410
