# vtk DataFile Version 2.0
Unstructured Grid Example
ASCII
DATASET UNSTRUCTURED_GRID
POINTS 2044 float
1.000127 -0.061714 0.001570 
0.001080 1.002747 0.019192 
-0.999565 -0.062952 0.000207 
0.001402 -0.998484 -0.021583 
0.000364 0.037928 0.998605 
0.989556 -0.159398 0.000123 
0.970029 -0.254945 -0.001693 
0.941222 -0.347597 -0.003510 
0.903438 -0.436437 -0.005647 
0.858021 -0.520888 -0.008090 
0.804833 -0.599197 -0.009875 
0.744235 -0.672174 -0.011673 
0.677759 -0.738799 -0.013385 
0.605177 -0.797908 -0.015459 
0.528194 -0.849899 -0.016856 
0.447089 -0.894962 -0.017968 
0.362299 -0.932373 -0.019047 
0.274388 -0.960726 -0.020259 
0.184471 -0.981618 -0.021206 
0.093322 -0.994114 -0.021101 
-0.090763 -0.995301 -0.021188 
-0.182107 -0.983159 -0.020840 
-0.272239 -0.963137 -0.019878 
-0.360150 -0.934466 -0.019026 
-0.445576 -0.898293 -0.017586 
-0.527063 -0.852971 -0.017604 
-0.604176 -0.800517 -0.016098 
-0.676505 -0.741085 -0.014269 
-0.743256 -0.674323 -0.012693 
-0.803035 -0.600606 -0.011153 
-0.856451 -0.522101 -0.009429 
-0.902035 -0.437713 -0.006815 
-0.939380 -0.348752 -0.004894 
-0.968469 -0.256098 -0.003102 
-0.988899 -0.160326 -0.001374 
-0.999941 0.035769 0.001982 
-0.991170 0.134661 0.003573 
-0.971644 0.233067 0.006009 
-0.942561 0.329406 0.007652 
-0.904141 0.422693 0.009619 
-0.856680 0.512389 0.012078 
-0.800178 0.597102 0.013943 
-0.734704 0.676216 0.015210 
-0.662082 0.748254 0.016812 
-0.581885 0.813188 0.016861 
-0.494910 0.868779 0.017208 
-0.402105 0.915930 0.017577 
-0.305419 0.953504 0.018931 
-0.205330 0.981202 0.019628 
-0.102579 0.997261 0.018936 
0.105046 0.997381 0.018473 
0.207968 0.980979 0.018994 
0.307616 0.953338 0.018533 
0.404194 0.915664 0.018030 
0.495984 0.868576 0.016911 
0.582676 0.812698 0.016070 
0.662981 0.748211 0.014710 
0.735682 0.675749 0.012791 
0.800879 0.596989 0.011214 
0.857112 0.512245 0.010424 
0.904472 0.422848 0.008555 
0.942978 0.329673 0.006872 
0.972087 0.233752 0.005319 
0.991351 0.135659 0.003840 
1.000308 0.037500 0.002040 
0.994673 -0.062149 0.099177 
0.980090 -0.060540 0.196331 
0.956048 -0.056577 0.291473 
0.923670 -0.051848 0.383456 
0.882188 -0.045072 0.471953 
0.831484 -0.036947 0.555960 
0.773668 -0.027635 0.634684 
0.707354 -0.017530 0.707182 
0.634649 -0.007016 0.773183 
0.555658 0.002864 0.831125 
0.471357 0.012158 0.881046 
0.382708 0.020969 0.922569 
0.290255 0.027347 0.954949 
0.195715 0.032462 0.979469 
0.098426 0.036756 0.993156 
0.000134 0.135429 0.993500 
0.000245 0.231826 0.978476 
0.000612 0.326214 0.955330 
0.001090 0.416963 0.922497 
0.001206 0.502570 0.880445 
0.001885 0.584037 0.829973 
0.000607 0.660001 0.772328 
-0.000550 0.728683 0.707558 
-0.000345 0.791314 0.635462 
-0.000125 0.846616 0.558077 
0.000725 0.894328 0.476344 
0.001328 0.933450 0.390035 
0.001336 0.963557 0.300323 
0.001376 0.984464 0.207922 
0.001101 0.997395 0.113981 
-0.098347 0.037167 0.994114 
-0.195672 0.034062 0.980614 
-0.290710 0.029034 0.956972 
-0.383373 0.022379 0.923572 
-0.472181 0.012811 0.881976 
-0.556534 0.002634 0.831504 
-0.635049 -0.008187 0.772757 
-0.707536 -0.019109 0.706766 
-0.773470 -0.029123 0.633906 
-0.832254 -0.038725 0.555354 
-0.882463 -0.046688 0.471215 
-0.923906 -0.053375 0.382261 
-0.956731 -0.058547 0.289950 
-0.980159 -0.061798 0.194817 
-0.994525 -0.063563 0.098047 
-0.000514 -0.060220 0.995853 
-0.000489 -0.157852 0.982498 
-0.000681 -0.253973 0.958495 
-0.000915 -0.348412 0.925988 
-0.000676 -0.440342 0.884114 
-0.000751 -0.528040 0.834078 
-0.001120 -0.609641 0.774490 
-0.000786 -0.687495 0.708060 
-0.000851 -0.756239 0.633563 
-0.000437 -0.818279 0.552549 
0.000343 -0.872363 0.465325 
0.000442 -0.917720 0.373942 
0.000615 -0.952647 0.278497 
0.000975 -0.978227 0.179869 
0.001077 -0.994815 0.079407 
0.789438 0.413352 0.460257 
0.348821 0.394320 0.862251 
0.357388 0.862498 0.381200 
0.909485 0.273526 0.318184 
0.947832 0.213463 0.241443 
0.966166 0.149372 0.216716 
0.982024 0.136494 0.135836 
0.545158 0.779064 0.328629 
0.532197 0.325028 0.791018 
0.290203 0.692412 0.679088 
0.750221 0.596837 0.292674 
0.736928 0.263710 0.627823 
0.781892 0.592969 0.196299 
0.769999 0.156709 0.622682 
0.219390 0.557878 0.817959 
0.220242 0.829082 0.536828 
0.861224 0.460384 0.217327 
0.839952 0.170565 0.519351 
0.141847 0.449130 0.896532 
0.145049 0.907606 0.423979 
0.422931 0.755044 0.520650 
0.419807 0.527422 0.753566 
0.446867 0.882105 0.167648 
0.429012 0.170595 0.891440 
0.911062 0.378715 0.160779 
0.899821 0.131084 0.420047 
0.094565 0.377952 0.932318 
0.098342 0.942406 0.352705 
0.299970 0.948703 0.127401 
0.285325 0.140560 0.950648 
0.952896 0.288275 0.093085 
0.937178 0.041679 0.351718 
0.586825 0.575375 0.584574 
0.087569 0.314311 0.954112 
0.091536 0.962776 0.289897 
0.239148 0.969092 0.101636 
0.226561 0.116347 0.968513 
0.972261 0.051736 0.234326 
0.975904 0.208313 0.076255 
0.991229 0.035734 0.140310 
0.670504 0.412200 0.626100 
0.677211 0.605956 0.431581 
0.548414 0.708997 0.461205 
0.541709 0.456889 0.716837 
0.787571 0.512861 0.348426 
0.775230 0.317299 0.551958 
0.727164 0.477768 0.503833 
0.401783 0.654092 0.658076 
0.333478 0.210048 0.924059 
0.347703 0.921241 0.198055 
0.412867 0.873038 0.282735 
0.399829 0.290570 0.877152 
0.350208 0.731817 0.603249 
0.349519 0.614303 0.723369 
0.491541 0.767091 0.433490 
0.482777 0.434796 0.770823 
0.283427 0.489464 0.839948 
0.287792 0.845938 0.472143 
0.502210 0.831641 0.256014 
0.486841 0.255880 0.843223 
0.318429 0.552044 0.787032 
0.320310 0.794169 0.537324 
0.238205 0.433688 0.882482 
0.243747 0.889295 0.413545 
0.866908 0.390267 0.314991 
0.875064 0.228641 0.430641 
0.442104 0.360313 0.831715 
0.452906 0.826931 0.355542 
0.391829 0.814688 0.449374 
0.385081 0.459986 0.814566 
0.109773 0.598915 0.811338 
0.109480 0.828269 0.574813 
0.219231 0.771554 0.618716 
0.219161 0.637714 0.756693 
0.081625 0.518524 0.867551 
0.082427 0.881560 0.493269 
0.657956 0.290786 0.701024 
0.672181 0.678447 0.309732 
0.525302 0.847831 0.088692 
0.502140 0.082837 0.862681 
0.193484 0.924428 0.360428 
0.186679 0.382807 0.915988 
0.234142 0.957092 0.201075 
0.223750 0.219831 0.955018 
0.454431 0.682119 0.591966 
0.439013 0.581704 0.700327 
0.271180 0.322011 0.916047 
0.281236 0.918570 0.304303 
0.939254 0.149888 0.312800 
0.934309 0.295889 0.200336 
0.179849 0.512642 0.856229 
0.181723 0.866828 0.488895 
0.448090 0.892904 0.073659 
0.426415 0.074181 0.902552 
0.376851 0.923330 0.100666 
0.358158 0.108025 0.928842 
0.064367 0.455085 0.903747 
0.065684 0.915709 0.428699 
0.118272 0.977731 0.210409 
0.113019 0.233306 0.971530 
0.161700 0.310083 0.945676 
0.168545 0.952844 0.287506 
0.633076 0.487511 0.613427 
0.635923 0.598525 0.501753 
0.572174 0.648952 0.517258 
0.568889 0.509991 0.657506 
0.753109 0.397292 0.532013 
0.764020 0.491431 0.426255 
0.665646 0.525636 0.543592 
0.585394 0.778978 0.239778 
0.567770 0.230557 0.796468 
0.832728 0.462784 0.307702 
0.825026 0.272963 0.499374 
0.701536 0.550097 0.466936 
0.697537 0.444002 0.572248 
0.799757 0.346965 0.496877 
0.722216 0.362326 0.596706 
0.730356 0.569986 0.388762 
0.502689 0.703794 0.520254 
0.498551 0.519598 0.706094 
0.850591 0.333816 0.412376 
0.817808 0.436592 0.380568 
0.908341 0.191797 0.374524 
0.965855 0.208334 0.158885 
0.596467 0.715653 0.380653 
0.585721 0.371503 0.729591 
0.664500 0.355454 0.665671 
0.674742 0.644343 0.374326 
0.527908 0.640773 0.574111 
0.498444 0.597929 0.642572 
0.183228 0.714489 0.695837 
0.619240 0.656207 0.447127 
0.612626 0.435181 0.670446 
0.100798 0.686946 0.739472 
0.101075 0.758449 0.665467 
0.712673 0.664794 0.230606 
0.694735 0.205704 0.694354 
0.999384 0.020940 0.065351 
0.539476 0.158626 0.831500 
0.559914 0.813602 0.165652 
0.747020 0.060900 0.663563 
0.770158 0.629638 0.096206 
0.795936 0.235733 0.563207 
0.808360 0.527720 0.263123 
0.828873 0.545118 0.120064 
0.807065 0.062636 0.589014 
0.139357 0.126229 0.984252 
0.147013 0.987504 0.106971 
0.904209 0.029819 0.430333 
0.920621 0.379894 0.080290 
0.883974 0.454611 0.099372 
0.864713 0.053241 0.502666 
0.899329 0.365294 0.243851 
0.619264 0.258241 0.747874 
0.635783 0.727061 0.272756 
0.065310 0.999077 0.077650 
0.061116 0.098449 0.994673 
0.062773 0.166013 0.987338 
0.066613 0.992360 0.143659 
0.699589 0.709633 0.087713 
0.674047 0.062513 0.737726 
0.617103 0.782756 0.089203 
0.592123 0.074426 0.804557 
0.739134 0.656961 0.150145 
0.716609 0.120426 0.689362 
0.652842 0.738158 0.176855 
0.631706 0.159020 0.762561 
0.821939 0.534088 0.200261 
-0.460115 0.468072 0.767684 
-0.392967 0.861886 0.346945 
-0.882277 0.327313 0.343132 
-0.339342 0.342907 0.885464 
-0.258286 0.306644 0.925344 
-0.218610 0.237693 0.954320 
-0.162585 0.168862 0.977316 
-0.336194 0.798310 0.523307 
-0.808493 0.286162 0.521116 
-0.706023 0.651983 0.286268 
-0.297700 0.644067 0.723802 
-0.641772 0.276909 0.722081 
-0.190569 0.643123 0.760613 
-0.648878 0.178626 0.743853 
-0.559374 0.802682 0.220396 
-0.844050 0.490686 0.217322 
-0.212839 0.542493 0.828445 
-0.504493 0.226882 0.839085 
-0.439108 0.888209 0.149830 
-0.918897 0.365493 0.142971 
-0.777336 0.484780 0.407814 
-0.540639 0.744470 0.409494 
-0.162589 0.900343 0.430370 
-0.901233 0.105305 0.424109 
-0.166693 0.467800 0.882103 
-0.428112 0.178684 0.891940 
-0.362811 0.928015 0.107523 
-0.951581 0.288354 0.097337 
-0.117836 0.957819 0.293402 
-0.959005 0.054705 0.283653 
-0.353860 0.116254 0.931662 
-0.092876 0.386867 0.929538 
-0.604478 0.571742 0.566833 
-0.294867 0.952633 0.101835 
-0.970712 0.221169 0.089986 
-0.089261 0.974397 0.237097 
-0.975514 0.025248 0.225773 
-0.235685 0.141144 0.965913 
-0.109637 0.259636 0.967375 
-0.157768 0.095970 0.985055 
-0.444784 0.631366 0.652937 
-0.644666 0.415336 0.651786 
-0.476781 0.715544 0.528044 
-0.738930 0.430984 0.527014 
-0.560717 0.344364 0.761917 
-0.358885 0.566796 0.757697 
-0.518378 0.503081 0.704193 
-0.672161 0.635775 0.390910 
-0.194755 0.930584 0.337477 
-0.936747 0.131410 0.329917 
-0.286872 0.882595 0.398687 
-0.893525 0.224777 0.393322 
-0.627404 0.705242 0.342467 
[...]
POINT_DATA 2044
SCALARS u float 1
LOOKUP_TABLE default
6.524021
2.052007
6.652894
2.291284
4.011140
6.513975
6.429178
6.291351
6.106772
5.870722
5.501817
5.168247
4.778865
4.373208
3.916195
3.479066
3.081938
2.750614
2.507847
2.287325
2.366745
2.606876
2.911792
3.311341
3.727380
4.207141
4.641284
5.062231
5.430732
5.750688
6.078756
6.298249
6.472160
6.585512
6.619810
6.600857
6.490717
6.275411
6.020985
5.747929
5.436186
5.093660
4.663303
4.308534
3.826356
3.378016
2.892933
2.586967
2.339941
2.070024
2.101634
2.425228
2.708439
3.090617
3.454639
3.876245
4.290964
4.682747
5.069836
5.433292
5.728878
5.998701
6.210500
6.392072
6.421883
6.569288
6.399631
5.981067
5.479961
4.763627
3.904816
2.921462
1.852736
0.742126
0.304950
1.288150
2.220356
2.897660
3.434032
3.890545
3.957720
3.889918
3.801322
3.627450
3.300552
3.019083
2.707928
2.281380
1.937921
1.622499
1.413586
1.283045
1.278383
1.418180
1.707158
3.929622
3.600211
3.068640
2.366398
1.356420
0.296472
0.868335
2.020293
3.078539
4.093327
4.934391
5.640801
6.187372
6.531209
6.717683
3.995393
3.939823
3.841630
3.629970
3.290778
2.923474
2.623130
2.076624
1.776880
1.430787
1.197187
1.131072
1.327335
1.634355
1.970368
4.114312
2.415759
2.137795
5.502779
5.956554
6.148864
6.408757
3.186814
1.452769
1.923815
4.454096
2.817241
4.898088
3.018657
2.742619
1.577714
5.345037
4.132414
3.371590
1.504520
2.100387
2.026137
3.054519
1.828694
5.823473
5.046222
3.572169
1.421235
2.452006
2.994209
6.185109
5.582298
2.489568
3.676898
1.444746
2.285847
3.278440
6.186636
6.346620
6.493322
2.581793
3.520478
2.743430
1.816142
4.537985
3.544665
3.495255
1.937918
2.670291
2.496580
2.625929
2.119339
1.809991
2.012040
2.595056
1.695757
2.576831
1.719565
3.166644
1.514196
2.331951
1.764158
2.945924
1.677809
5.165602
4.801983
1.824395
2.606794
2.139110
2.147912
2.864839
1.701349
1.777349
2.353613
3.178921
1.503617
1.909375
3.950556
3.563384
0.995484
1.665104
3.267454
1.996119
3.338397
2.121928
1.983849
2.954931
1.996031
5.717804
5.949150
3.069041
1.466229
3.228543
1.794991
2.864695
2.465988
3.491803
1.465465
1.594265
3.749595
3.493120
1.646955
2.562643
3.028769
2.664504
2.155566
3.546514
4.094924
3.007702
3.644891
1.038432
4.984639
4.144033
3.525785
3.054738
4.006716
2.981037
4.011761
2.377521
1.903375
4.702804
4.621958
5.299058
6.237135
3.310827
1.689731
2.275811
3.763673
2.323504
2.055781
2.115752
3.156359
2.128855
2.408936
1.995741
4.420583
2.065631
6.531305
0.848169
3.650073
2.547738
4.935565
3.604723
4.903313
5.260696
3.469746
3.732439
1.945232
5.061293
5.928828
5.663625
4.433794
5.583187
1.359897
3.856495
1.879789
3.990508
3.938557
1.670421
4.506218
1.383102
4.050262
0.372486
4.726958
2.168645
4.175095
1.075171
5.131814
1.801833
2.204525
5.336370
2.497082
3.039649
3.374300
3.717709
1.821651
4.029084
4.142257
2.026931
1.732755
2.284308
1.385716
3.406198
5.337546
2.537914
1.295545
2.876150
5.980490
4.265421
2.721225
1.401004
5.248849
3.010101
1.946049
2.667475
6.221170
1.383367
6.137366
2.593010
3.522209
2.549082
2.414893
6.387266
1.408906
6.382832
3.393844
3.777184
3.788529
1.895050
2.291925
2.154011
3.504907
1.395415
2.044932
1.756576
3.599303
1.456274
5.815344
1.746861
5.293971
3.440097
4.272356
2.145418
4.137041
2.838933
5.335826
1.618700
4.593400
4.839597
3.116363
5.744641
2.601790
2.618747
1.793623
4.753866
1.965903
4.830523
2.424979
5.412399
3.854430
4.877265
3.924911
3.392232
5.750889
2.639843
1.860395
1.594138
4.646976
2.443214
6.051510
1.666962
6.310751
3.618613
2.999986
5.920772
1.956005
2.700790
5.682732
3.180615
1.298008
5.315433
1.246757
5.767360
5.982309
3.028930
1.993532
6.530570
6.288848
2.182995
2.055990
2.475398
3.011796
2.325107
1.811392
1.585791
2.068072
1.665996
3.826376
1.344800
2.197864
1.963715
1.878956
1.964762
1.896782
1.806116
3.090580
2.534197
3.616849
2.106391
1.591125
3.426570
1.906904
3.359922
1.871523
2.467221
3.118015
2.957221
4.535458
2.847890
1.998123
4.926184
4.478088
2.275086
1.969320
4.217923
1.619697
2.542268
1.271102
2.184870
1.146177
0.768131
2.719282
1.655459
6.619941
1.864484
3.309232
3.046351
0.947205
3.187855
1.776620
6.681483
1.854703
6.610636
1.977820
2.030016
2.156395
2.549049
1.773792
3.663208
0.470186
2.215315
1.996034
3.159175
1.779483
3.890117
3.937870
1.745628
5.562155
2.621273
2.622773
3.147146
3.489316
4.278479
1.951588
4.580316
1.811580
1.978614
1.259961
2.184226
5.647600
3.859019
1.057799
2.744853
6.290887
3.311310
3.257172
4.658568
5.313075
1.358954
1.930762
3.238038
6.507760
3.012693
6.205558
1.520161
3.526820
2.589930
2.899334
6.608154
2.729898
6.454331
1.620998
3.612203
3.160667
2.461450
2.022892
3.821743
2.493959
1.959358
1.571201
1.866941
4.118599
5.920822
1.716185
5.442035
1.929576
4.725319
3.942624
4.492092
2.566008
5.654598
3.321048
4.793920
1.669185
3.652824
5.231838
3.053890
6.001883
1.865112
2.367093
2.225496
5.010255
2.979397
5.162236
4.294680
5.744871
4.370679
5.251091
6.123433
3.778746
1.725982
2.760379
4.662553
1.297771
6.319957
2.878961
6.416998
2.027687
3.549467
4.216378
2.374600
6.094816
3.289881
2.855521
3.624108
5.981285
5.327129
1.194125
5.821310
1.260679
3.441696
6.328203
6.684396
2.335885
2.568409
6.526401
2.706775
2.371671
2.635483
3.356577
1.684845
1.846730
2.294978
3.955783
1.547277
2.215895
1.472098
2.083830
2.098502
1.578842
1.978122
1.865050
3.998380
2.952528
1.911281
1.968084
3.609572
2.003727
2.638689
1.862114
2.347372
3.139084
3.643822
4.907847
2.210276
3.130397
4.843258
5.288268
1.805362
2.317673
1.355610
4.281634
1.448496
2.421998
1.269169
2.302443
2.638637
0.504331
6.691250
1.962142
3.406410
1.813236
0.981795
3.084587
1.677027
3.294946
2.164638
6.709996
2.262974
6.701748
2.833004
2.569740
1.931009
1.532819
3.688788
2.865221
1.966615
1.991443
1.583249
3.207770
3.593485
3.912100
3.977583
3.791340
4.386144
2.249987
2.373222
5.691583
6.051841
6.270903
6.482546
6.597517
3.336075
1.517448
2.043500
4.713068
2.889758
5.100595
2.788305
1.738455
2.792419
5.539825
4.461315
1.434894
3.420849
2.051176
2.298520
3.108026
1.861697
5.136234
6.006177
1.342028
3.652578
2.492786
2.879800
6.260148
5.695687
2.677435
1.450198
3.776365
2.341969
3.262271
6.414668
6.185542
3.783336
2.707900
2.972761
1.967641
3.702709
4.757837
3.789406
2.071542
2.538933
2.633965
2.771342
2.169329
2.004272
2.132331
2.799341
1.878021
1.817508
2.638775
3.267747
1.486274
2.378653
1.936046
2.957478
1.696408
5.612442
4.888098
1.920004
2.802225
2.151312
2.311440
2.757656
1.571500
2.476068
1.944015
1.317150
3.204142
2.003653
4.140802
3.617617
1.027304
1.596604
3.337404
2.022180
3.280845
2.047961
2.219280
2.914246
1.997323
5.809883
6.132290
3.077668
1.582863
3.257451
1.801175
2.872309
2.449163
3.499886
1.212583
1.709923
3.864393
3.554934
1.628417
3.273672
2.687918
2.292720
2.905831
4.297024
3.834580
3.253271
3.740416
1.102320
4.254731
5.193742
3.226127
3.789091
4.772754
4.279624
3.101608
2.582302
2.066981
5.120010
4.378528
3.512375
1.784956
3.979289
2.373037
5.920349
2.252749
2.282965
2.213396
2.276099
3.383934
2.297029
1.938019
2.062554
4.588703
0.920024
3.728580
5.054490
2.662042
5.116371
3.613668
3.584912
5.425878
2.082182
3.771978
5.122371
6.077620
5.819002
4.316493
1.469743
3.988030
3.971048
2.097565
4.009988
1.862975
5.201613
4.604094
1.410260
4.112710
0.411947
3.507143
4.852995
2.126645
1.118664
4.284144
6.541415
6.435340
2.541907
2.281787
0.946215
1.174920
2.190385
1.971754
1.852976
2.115848
2.170574
2.212537
2.961376
1.451337
2.197103
1.352812
3.501898
2.491086
1.666105
3.587861
2.323724
3.086985
2.526762
2.533069
2.253288
4.057260
4.087067
2.312004
2.503461
3.226601
1.641516
2.335812
4.001964
3.371409
4.228751
2.678953
3.162014
3.367728
2.272646
1.383316
1.119308
1.869925
2.296314
1.171617
1.561394
1.216673
2.544632
4.843520
2.074478
4.668327
0.850295
5.018981
2.334110
4.620272
2.277014
2.316837
2.633876
4.118717
2.012074
2.099678
2.181023
2.965784
2.271792
2.354254
2.485710
4.974432
3.514584
1.930609
2.156545
2.246658
2.374862
2.616176
4.936187
2.506860
4.184780
3.309739
2.382366
2.239667
2.531511
2.061994
3.234834
1.298176
0.999760
0.521621
2.279210
2.719765
2.182812
2.776238
2.310001
2.429576
1.966831
4.458776
2.189952
1.892755
3.202108
2.340277
4.338731
3.308765
2.433814
2.261580
5.475459
1.520972
2.405423
5.395371
1.896303
5.193225
0.824436
1.805366
3.087995
2.114528
1.588656
2.880587
2.385481
3.117241
2.562541
2.273275
4.122566
2.170746
5.392533
0.592742
5.000285
2.162488
2.066385
2.340777
1.825398
5.302667
5.321211
4.103121
2.274544
4.919980
0.299344
2.558866
2.337256
2.320422
2.341756
3.178162
2.870706
3.051629
2.119916
2.425302
2.224661
2.147554
3.527022
3.038432
5.171668
4.306449
4.060674
2.229556
1.331092
2.757988
2.427648
1.767539
2.340566
3.769482
1.277248
2.003243
0.579558
1.515923
1.705423
2.374191
3.842927
5.693653
2.566429
2.346513
2.337044
2.374599
2.259281
3.037010
2.323173
2.404251
3.904615
1.852977
2.212104
2.871225
1.770091
1.511726
3.700669
0.903470
1.210335
2.319391
2.460581
2.343952
2.478364
5.809523
3.950327
3.943999
3.849987
2.270791
2.615733
2.464730
1.279074
5.478157
2.139564
2.714559
3.288107
2.364007
3.932351
1.534864
4.692116
5.208846
2.104792
3.008765
3.687863
4.656670
2.576451
2.074780
2.010597
2.408698
2.107768
4.317936
2.667715
1.347998
2.032653
5.561331
3.867701
2.331009
2.796860
5.567404
4.449017
2.750572
3.990833
1.169031
2.285124
2.189134
3.045532
5.439243
2.320192
2.311140
2.425248
2.112392
1.703145
2.459090
4.770485
2.689460
5.811498
4.593596
5.860134
2.121100
4.664759
2.249979
2.922319
2.269438
5.015974
5.721831
4.102501
5.683056
1.645299
2.340015
2.096321
3.122973
2.562288
3.683833
4.853728
2.534024
1.439603
1.837444
0.262840
2.465311
1.734355
3.772017
1.951768
3.265042
0.997130
4.391451
2.272817
2.412914
2.328387
2.653237
2.044919
2.209791
1.998216
2.441537
1.900936
2.112041
2.001169
3.846523
3.403649
5.053426
4.719156
3.782403
3.321735
3.705123
3.550212
4.771873
2.639127
2.248443
2.219814
1.985622
0.200794
2.277097
2.526293
1.982220
3.400629
2.367123
2.607223
1.689390
5.865573
1.694794
2.046383
2.247984
3.420015
3.711359
2.272138
0.911478
1.653271
1.471978
5.821483
2.046250
2.317614
2.327729
2.342095
4.508505
2.339461
1.819974
1.618086
2.480948
0.476987
0.957002
1.985302
2.056610
4.377597
2.849413
2.252943
2.740421
2.956973
1.781323
4.726656
3.884103
2.850959
1.206130
2.840160
3.104356
2.140094
2.350144
1.544093
2.235067
2.192892
3.527996
0.722636
1.145534
2.650608
4.960590
5.135196
1.719090
2.483116
5.730316
2.169829
1.932216
1.286197
3.454495
1.364473
4.040575
1.946764
2.335643
2.325365
3.490592
2.923106
2.124804
2.968662
2.062337
2.876473
2.896061
4.000032
3.489258
2.372439
2.040486
6.109219
2.043806
2.507699
2.423632
2.162934
3.433510
2.491078
2.394740
2.401701
2.463408
4.841887
6.027256
2.386358
2.480378
4.551779
2.329035
3.395636
1.698327
3.024614
4.549039
6.055486
2.240096
2.140491
3.579639
2.250240
3.575591
3.015203
1.820076
2.493766
2.178863
2.027991
1.915769
2.181887
2.204490
2.163127
5.884575
2.320694
1.894515
1.834927
2.964748
2.888650
1.563177
1.591065
1.759392
1.306144
1.996161
1.966423
2.202212
2.368736
1.986167
2.015233
5.509867
4.097030
4.610610
4.096701
2.074693
0.273733
0.479070
1.479039
0.413701
1.721104
1.729204
3.117152
5.532411
5.619193
2.715280
1.294955
2.228968
3.595764
3.679140
3.497725
3.633257
3.583351
3.204272
2.927236
3.551339
3.142428
2.924522
1.111101
2.476160
2.430015
3.522151
2.997419
2.312938
3.838382
3.651029
2.728896
3.144530
3.182862
2.761886
1.920344
2.607947
2.931474
2.741974
2.509739
2.139433
1.710619
2.842247
2.380968
1.901719
1.829349
2.067400
1.159949
2.431525
0.607003
2.050915
1.255233
2.347179
1.569461
2.734986
2.213009
1.321417
3.239151
2.072908
2.706792
2.375106
2.739445
1.030059
2.144457
2.282082
2.156468
2.423885
2.286102
4.074244
4.186251
3.361598
4.921790
1.533871
1.844172
2.903627
1.784692
2.495388
3.296064
2.273768
1.718103
4.466932
1.820556
1.998236
2.246963
2.417839
1.311076
1.939341
1.946252
1.684587
1.811519
2.685743
1.774511
1.928379
2.335330
1.898470
1.741174
1.707456
1.400665
1.209299
1.280806
1.785764
1.901938
3.499450
3.159806
2.194665
3.065581
2.172253
2.147738
2.026717
3.052022
2.154733
2.560318
3.618497
2.617043
3.234492
1.638095
4.776637
4.720494
5.630801
3.046928
3.250427
3.754030
3.601903
3.838557
0.681322
3.113091
2.188020
1.663028
4.359924
5.031352
2.410699
0.556459
2.004567
4.695061
2.371121
0.493150
2.754311
1.958263
0.359594
1.615381
2.405536
1.870288
1.662072
1.252590
1.168292
1.685826
0.621511
1.882342
2.293150
2.239423
1.802886
1.979031
1.147535
0.322703
1.734947
3.912073
2.705390
1.260968
1.552213
4.742550
1.732961
2.467373
1.801288
1.812457
2.740768
2.729709
1.356928
4.470844
2.484245
1.833865
2.286968
2.791832
3.705292
4.067419
1.658367
4.984138
4.088531
4.920423
5.101778
3.969313
3.867765
3.787768
2.961396
2.520890
3.828194
3.769382
3.818159
2.417613
3.598441
4.088535
1.689862
1.737047
2.551199
1.817848
1.965682
1.942623
3.333934
1.974560
1.900878
1.991972
1.846780
2.336410
1.638391
1.868959
1.606229
2.175726
1.790439
2.145790
2.122498
2.717329
1.944838
2.252400
2.127500
1.760466
1.194416
1.890111
1.814698
2.614312
1.786990
1.516880
1.743173
2.439946
1.693484
3.377851
3.038963
2.462339
3.636619
3.595070
3.237499
1.667382
2.416768
1.690981
1.798235
1.634573
1.713657
2.632031
2.973449
2.888915
2.956834
2.852183
1.304989
1.772810
3.891686
2.701523
1.266543
2.003455
1.838750
2.134401
3.323877
3.764537
2.885550
4.520577
2.961915
0.938432
4.763544
3.837402
1.863346
1.975634
1.977445
1.872353
1.911612
1.637940
2.003789
1.605547
3.617850
3.879812
3.846159
3.821746
3.828894
3.873281
3.619968
1.999294
2.302552
3.283347
5.136006
1.098971
2.479528
1.125976
1.809358
1.570307
4.302735
4.423092
3.561258
5.097305
2.276645
2.587643
2.445516
2.702895
2.472249
4.610033
3.197399
2.599869
1.731582
2.305353
3.073795
1.631940
1.545589
3.275306
2.286485
4.472029
1.696388
1.724695
1.789346
2.156388
1.945432
2.456181
1.490579
2.895265
1.941373
2.006628
3.389247
2.568406
1.911715
5.687651
0.957489
2.488349
2.122726
0.374918
1.691544
2.892278
2.298895
3.785663
1.756757
2.501946
2.081134
2.150358
2.255022
1.507069
1.319999
1.625572
1.782542
3.145922
1.340364
1.327886
3.499098
2.419706
1.652457
1.667866
1.769536
2.331580
1.690405
1.732116
1.535831
1.751254
1.086892
1.114006
2.342159
2.043982
2.237099
2.435795
1.422190
1.657116
1.394542
2.247404
2.036058
2.174720
2.281638
4.084245
1.971635
2.549567
2.130028
1.964006
1.565696
0.855830
1.937986
2.054497
0.864451
1.093241
1.936372
2.029157
3.823634
2.721488
3.078090
1.747850
2.826548
0.564587
0.912473
0.931235
2.087905
1.947377
2.130495
1.854115
1.974674
2.020821
2.720705
2.128836
2.859276
1.690103
1.843344
0.930776
1.717947
1.926879
2.047729
2.006775
2.105437
1.891633
2.163847
2.120173
2.066206
3.142373
2.957831
1.869623
2.167020
2.530552
1.894295
1.681919
1.867708
1.596914
5.210085
5.121410
2.015520
2.898927
0.737389
0.757548
0.716320
0.746284
1.851905
1.969534
4.265107
4.150946
4.192090
3.002069
3.331298
1.382843
1.447587
1.568733
2.632795
3.143391
3.041734
1.922760
2.334232
1.960963
1.847195
1.438176
1.716652
1.627852
3.422382
2.267037
1.738409
3.106796
2.943763
1.932213
2.083252
2.152777
2.224201
2.039059
2.023288
2.023819
1.895279
1.674489
3.760929
2.737638
3.762136
2.238210
1.951656
2.090623
2.072666
1.993156
2.122275
2.365686
2.005596
1.877110
2.046238
1.053357
0.302196
1.282886
1.724456
3.070608
3.051188
2.908940
1.683115
1.921591
2.102997
1.948814
1.516419
1.537889
2.390702
2.720013
2.315267
1.972730
0.405232
2.594679
2.857927
3.603895
5.068975
4.882240
4.843587
2.273498
2.243752
3.359444
2.636541
2.742804
2.581087
3.085555
2.214141
2.354737
2.473178
4.049556
3.701551
1.951209
2.273299
2.463242
2.243918
2.382713
2.422564
2.625123
1.893837
2.062114
1.944902
2.283748
1.872970
2.061008
1.958557
1.933803
1.633984
2.376528
3.290784
1.595670
1.334229
1.400814
1.103658
2.005272
1.907669
2.062544
2.033318
1.316807
3.861586
2.769280
2.147345
2.208573
2.292141
4.951838
1.952816
1.174549
1.690613
2.339288
1.578363
1.996158
1.939667
1.910382
1.904215
3.112437
2.974353
2.003736
2.122213
2.472148
2.366025
2.261388
1.985567
2.163332
1.896456
4.743838
4.635602
4.352584
2.756765
0.268362
0.200157
3.501424
4.232498
4.227965
3.697538
4.176611
1.981276
2.013193
1.834187
1.254870
1.352432
1.829793
2.053511
1.127868
1.656327
1.293770
1.451519
3.125895
3.279910
3.112865
1.924728
4.086523
3.941008
1.819843
1.904787
1.950916
1.348969
1.782407
0.260857
1.122988
2.202322
1.608162
1.561774
3.214463
2.373033
4.032325
1.682829
1.579831
1.943928
1.161349
1.005902
2.150343
2.100820
2.806744
2.706154
2.279895
3.192060
3.054779
1.892913
2.116033
1.719471
3.712522
2.633390
1.290890
2.320277
2.262347
2.512586
1.717869
1.671230
1.757098
1.999212
1.906159
1.962326
3.689574
3.633377
5.300740
3.627163
1.975313
1.916914
1.928765
2.883710
3.217373
3.943060
2.532167
3.182105
1.508553
1.228232
1.869556
1.575475
1.959585
3.811355
3.914187
3.724819
1.949237
1.822118
1.800589
2.301591
2.041987
1.038350
0.943265
1.442772
1.352810
1.635496
2.013073
1.820367
2.620911
2.091233
3.040241
1.826277
1.708439
3.510182
2.035659
2.153784
2.120829
1.720638
1.924221
0.591746
2.406088
2.268142
2.035536
2.029788
1.795195
1.820435
1.747208
3.913670
2.260380
1.740023
1.906717
2.012165
1.990655
1.635609
2.200752
2.300303
2.247445
1.925324
1.254165
1.101009
1.941225
1.978657
1.831312
4.830510
4.716051
2.058341
2.058380
1.957979
1.753630
2.933073
1.320589
2.379235
3.286901
1.847206
2.110035
1.887717
1.944686
1.869685
1.524670
1.705075
2.721919
2.606514
1.877837
1.313107
1.379077
4.007638
4.835292
1.732012
3.939795
1.956370
1.966685
2.109389
2.044894
1.677606
1.725556
2.470308
1.493586
1.691842
2.216601
2.085528
2.053669
1.546850
1.573159
1.744115
1.898189
1.839395
2.646320
2.640336
4.513546
1.949888
3.630882
2.739795
2.879490
2.884629
2.707861
2.790636
2.984219
2.680050
2.670460
2.595660
2.556285
3.255093
1.049700
0.648664
1.246639
1.492942
0.673783
2.030103
1.151938
0.896650
1.039687
1.563865
1.089284
2.012210
2.334229
2.440521
3.042940
2.812902
2.956188
2.013116
2.580434
1.960783
1.866683
2.429036
1.775999
2.819273
2.938431
2.424407
2.637747
1.967266
1.774163
2.560667
2.698024
2.510164
2.519972
2.793000
2.111138
2.737638
2.241624
2.396095
1.987316
1.684376
2.531317
1.098600
1.571572
2.072053
1.165438
1.677263
2.992664
2.741991
2.457988
2.583159
0.996525
2.735598
2.593632
2.156193
2.044641
2.090643
2.352972
1.780323
1.572419
1.574301
1.961042
1.688037
2.165661
1.381771
1.003006
1.377903
0.959736
1.812727
1.953046
1.726723
1.741064
1.999105
1.888662
1.751314
1.676045
2.339089
2.226133
1.817119
2.357262
1.556510
1.448746
2.826286
2.066410
