# vtk DataFile Version 2.0
Unstructured Grid Example
ASCII
DATASET UNSTRUCTURED_GRID
POINTS 2044 float
0.999390 0.296626 -0.007544 
-0.005192 0.986798 -0.092244 
-1.002092 0.302575 -0.000994 
-0.006738 -1.007288 0.103737 
-0.001751 -0.182301 1.006705 
1.022239 0.197010 -0.000593 
1.032483 0.092598 0.008136 
1.032490 -0.014814 0.016873 
1.022133 -0.124319 0.027140 
0.996796 -0.233519 0.038886 
0.959500 -0.345877 0.047463 
0.911318 -0.452799 0.056106 
0.848167 -0.554777 0.064334 
0.774820 -0.653341 0.074304 
0.687155 -0.742890 0.081020 
0.588233 -0.819241 0.086362 
0.480663 -0.883055 0.091551 
0.366689 -0.938747 0.097375 
0.246130 -0.976783 0.101926 
0.120583 -1.000333 0.101424 
-0.132882 -0.994628 0.101839 
-0.257495 -0.969375 0.100165 
-0.377022 -0.927157 0.095541 
-0.490990 -0.872998 0.091447 
-0.595502 -0.803230 0.084529 
-0.692587 -0.728122 0.084613 
-0.779632 -0.640802 0.077376 
-0.854193 -0.543794 0.068586 
-0.916024 -0.442473 0.061007 
-0.968139 -0.339107 0.053606 
-1.004345 -0.227686 0.045322 
-1.028876 -0.118186 0.032756 
-1.041342 -0.009263 0.023522 
-1.039982 0.098142 0.014911 
-1.025397 0.201470 0.006604 
-0.972325 0.397212 -0.009524 
-0.930869 0.485541 -0.017172 
-0.886266 0.565299 -0.028881 
-0.834088 0.638760 -0.036781 
-0.775125 0.705491 -0.046233 
-0.710296 0.763121 -0.058055 
-0.642428 0.813633 -0.067018 
-0.574461 0.855581 -0.073106 
-0.501310 0.892002 -0.080807 
-0.429091 0.919341 -0.081040 
-0.358379 0.945090 -0.082711 
-0.289333 0.962091 -0.084484 
-0.217544 0.973458 -0.090993 
-0.145875 0.978782 -0.094340 
-0.076088 0.985207 -0.091013 
0.064234 0.984629 -0.088791 
0.133193 0.979854 -0.091295 
0.206981 0.974256 -0.089078 
0.279295 0.963369 -0.086662 
0.353218 0.946063 -0.081284 
0.425287 0.921697 -0.077242 
0.496986 0.892207 -0.070703 
0.569760 0.857825 -0.061480 
0.639061 0.814174 -0.053902 
0.708218 0.763811 -0.050105 
0.773534 0.704747 -0.041120 
0.832085 0.637476 -0.033031 
0.884140 0.562006 -0.025564 
0.930000 0.480746 -0.018459 
0.970558 0.388889 -0.009807 
0.997642 0.298720 0.092441 
0.984129 0.290985 0.189126 
0.961227 0.271935 0.284573 
0.924887 0.249208 0.378969 
0.880640 0.216637 0.468724 
0.831401 0.177587 0.553696 
0.769848 0.132828 0.632995 
0.705920 0.084256 0.706747 
0.633162 0.033720 0.772183 
0.555146 -0.013764 0.833124 
0.471588 -0.058436 0.886126 
0.382564 -0.100789 0.930178 
0.290428 -0.131442 0.966512 
0.192088 -0.156028 0.987114 
0.096054 -0.176669 1.004934 
-0.000642 -0.081803 1.003284 
-0.001177 0.018523 0.991884 
-0.002940 0.117593 0.964683 
-0.005238 0.217918 0.930524 
-0.005799 0.321562 0.889017 
-0.009062 0.418746 0.838663 
-0.002915 0.511311 0.776290 
0.002645 0.603402 0.704937 
0.001659 0.685036 0.629255 
0.000603 0.758668 0.543523 
-0.003487 0.822290 0.447617 
-0.006385 0.877879 0.347350 
-0.006424 0.925136 0.242037 
-0.006614 0.963104 0.133413 
-0.005290 0.984560 0.021285 
-0.096430 -0.178644 1.000334 
-0.192296 -0.163717 0.981608 
-0.288241 -0.139552 0.956788 
-0.379371 -0.107566 0.925360 
-0.467630 -0.061576 0.881657 
-0.550937 -0.012662 0.831302 
-0.631241 0.039348 0.774228 
-0.705044 0.091848 0.708746 
-0.770803 0.139980 0.636738 
-0.827701 0.186130 0.556609 
-0.879319 0.224407 0.472270 
-0.923753 0.256545 0.384716 
-0.957945 0.281405 0.291891 
-0.983795 0.297032 0.196403 
-0.998358 0.305514 0.097872 
0.002471 -0.279689 0.991971 
0.002352 -0.374075 0.972553 
0.003272 -0.464818 0.949469 
0.004397 -0.547410 0.913744 
0.003251 -0.620660 0.871382 
0.003611 -0.687893 0.818932 
0.005385 -0.753364 0.765900 
0.003777 -0.801368 0.702525 
0.004090 -0.853623 0.638386 
0.002099 -0.894868 0.570094 
-0.001647 -0.927861 0.500580 
-0.002126 -0.953484 0.424701 
-0.002957 -0.977576 0.346940 
-0.004684 -0.993080 0.268250 
-0.005178 -0.996960 0.187465 
0.668533 0.604059 0.449535 
0.289057 0.276012 0.869271 
0.247884 0.868086 0.339075 
0.810170 0.558680 0.302809 
0.863974 0.529441 0.226066 
0.899754 0.480317 0.202447 
0.921077 0.482881 0.118737 
0.394675 0.855448 0.281946 
0.456973 0.299255 0.797991 
0.216742 0.616421 0.680465 
0.592812 0.780760 0.256817 
0.656707 0.396031 0.631824 
0.620672 0.803260 0.149266 
0.714508 0.313003 0.623967 
0.161721 0.418837 0.825006 
0.157624 0.771542 0.520017 
0.721377 0.716359 0.183174 
0.776050 0.388437 0.518351 
0.109471 0.267014 0.906666 
0.094080 0.853440 0.387901 
0.308794 0.751975 0.503871 
0.323809 0.471323 0.759082 
0.311443 0.943338 0.089692 
0.397261 0.075528 0.898472 
0.787584 0.671992 0.127320 
0.844786 0.402772 0.414585 
0.076916 0.182840 0.944232 
0.058763 0.895745 0.304187 
0.199627 0.971339 0.040400 
0.270019 -0.022848 0.961987 
0.848763 0.610267 0.062006 
0.905828 0.346717 0.345159 
0.458669 0.622822 0.578608 
0.073647 0.113172 0.966881 
0.054579 0.925236 0.230515 
0.156369 0.978026 0.007607 
0.216872 -0.063102 0.980809 
0.937684 0.389766 0.225057 
0.890403 0.545459 0.051334 
0.958638 0.390851 0.129613 
0.560081 0.501173 0.629754 
0.527843 0.726575 0.408018 
0.410091 0.763411 0.436166 
0.442319 0.456908 0.725727 
0.644159 0.714928 0.320677 
0.677830 0.485952 0.552657 
0.595796 0.617357 0.492078 
0.303170 0.613931 0.658207 
0.303874 0.066874 0.936335 
0.235505 0.949878 0.124517 
0.285668 0.908155 0.224392 
0.348333 0.186735 0.888378 
0.260109 0.689991 0.598471 
0.263421 0.545338 0.730595 
0.356227 0.800531 0.403462 
0.398351 0.397184 0.782594 
0.223455 0.361308 0.844952 
0.202474 0.816163 0.444560 
0.355720 0.902988 0.195004 
0.429593 0.195651 0.847319 
0.240307 0.450702 0.793608 
0.231270 0.759305 0.521453 
0.192450 0.278652 0.890825 
0.165813 0.858075 0.375469 
0.742163 0.644286 0.293382 
0.793609 0.479544 0.425664 
0.373497 0.287613 0.839185 
0.321579 0.862181 0.310543 
0.278173 0.816026 0.419468 
0.310608 0.368460 0.816614 
0.076692 0.445440 0.822640 
0.078101 0.741260 0.561283 
0.161798 0.692765 0.613204 
0.162134 0.521892 0.764194 
0.058157 0.345640 0.875777 
0.054306 0.808443 0.467030 
0.578853 0.359271 0.708662 
0.510478 0.817172 0.268229 
0.374040 0.937655 0.002761 
0.485368 0.030901 0.866278 
0.123935 0.887576 0.313791 
0.156644 0.206227 0.928143 
0.152138 0.957159 0.128245 
0.202085 0.038093 0.967127 
0.338752 0.671664 0.581877 
0.336143 0.545824 0.703736 
0.234694 0.164255 0.927939 
0.186356 0.915812 0.249370 
0.876378 0.457557 0.303725 
0.829885 0.604702 0.176358 
0.136012 0.350003 0.864077 
0.127003 0.813135 0.464141 
0.311581 0.954856 -0.021179 
0.415764 -0.023687 0.908484 
0.256186 0.965535 0.008835 
0.346036 -0.026537 0.939046 
0.043791 0.264380 0.907772 
0.037463 0.850279 0.391205 
0.073649 0.955754 0.138306 
0.098895 0.028251 0.985555 
0.139852 0.119771 0.957494 
0.106955 0.923040 0.228286 
0.509362 0.554722 0.615124 
0.495675 0.686752 0.486267 
0.437859 0.705058 0.501631 
0.453652 0.536562 0.663943 
0.636956 0.553730 0.529527 
0.628421 0.669849 0.406222 
0.530477 0.620215 0.533910 
0.426474 0.885920 0.181347 
0.511182 0.225649 0.801860 
0.695942 0.698524 0.280780 
0.735655 0.482370 0.497166 
0.556337 0.677082 0.449046 
0.575558 0.559278 0.570616 
0.689913 0.537684 0.491888 
0.617797 0.488494 0.599134 
0.578671 0.727565 0.361434 
0.375605 0.728388 0.502675 
0.395494 0.505826 0.717332 
0.740502 0.567322 0.401347 
0.688452 0.654312 0.361722 
0.836722 0.473920 0.367685 
0.882435 0.540150 0.139427 
0.443289 0.806723 0.344127 
0.494941 0.388103 0.739731 
0.566533 0.432901 0.671999 
0.517306 0.774514 0.342194 
0.402916 0.664820 0.564282 
0.385494 0.597728 0.643432 
0.134963 0.608748 0.697557 
0.472792 0.745650 0.422059 
0.504582 0.479480 0.677208 
0.073643 0.557676 0.747858 
0.076600 0.651562 0.665953 
0.547990 0.836905 0.183166 
0.632678 0.300693 0.697027 
0.971403 0.378540 0.054495 
0.503107 0.129588 0.833916 
0.404872 0.919939 0.095832 
0.720871 0.198318 0.668819 
0.604741 0.836267 0.037210 
0.716425 0.417120 0.561252 
0.662275 0.751194 0.227075 
0.675052 0.784482 0.069169 
0.777646 0.250951 0.593066 
0.131230 -0.078357 0.995852 
0.094432 0.980219 0.014206 
0.877384 0.306594 0.427292 
0.796320 0.678376 0.040617 
0.745114 0.729318 0.053670 
0.833286 0.294816 0.502284 
0.778107 0.645832 0.217258 
0.552682 0.291590 0.754003 
0.473559 0.853669 0.222239 
0.037807 0.983037 -0.020604 
0.057966 -0.120576 1.004205 
0.057095 -0.049863 1.001277 
0.038638 0.977139 0.057582 
0.529857 0.875418 0.016950 
0.652845 0.135437 0.740462 
0.452716 0.910394 0.010407 
0.572687 0.080724 0.805741 
0.571535 0.847383 0.094433 
0.676561 0.232454 0.695960 
0.487247 0.884144 0.114491 
0.588083 0.198503 0.767840 
0.669319 0.767219 0.157129 
-0.377438 0.413879 0.773030 
-0.282514 0.871025 0.298078 
-0.773019 0.598082 0.316405 
-0.291996 0.214603 0.896429 
-0.224726 0.143215 0.932926 
-0.195314 0.053780 0.956685 
-0.152236 -0.035115 0.980614 
-0.245586 0.762945 0.499700 
-0.714001 0.486061 0.510231 
-0.551001 0.810744 0.235656 
-0.232663 0.553750 0.719797 
-0.564780 0.332591 0.728067 
-0.151156 0.523963 0.760842 
-0.599248 0.236201 0.748192 
-0.411647 0.898435 0.156886 
-0.699600 0.741794 0.171661 
-0.178863 0.407323 0.832832 
-0.457134 0.174258 0.846485 
-0.315185 0.946670 0.071101 
-0.799169 0.669014 0.104069 
-0.644831 0.676280 0.381455 
-0.407793 0.802800 0.373377 
-0.114012 0.855679 0.390736 
-0.851404 0.389343 0.420827 
-0.138316 0.305044 0.889720 
-0.391782 0.078132 0.893376 
-0.255616 0.964913 0.014635 
-0.851645 0.613490 0.063596 
-0.086377 0.927522 0.231196 
-0.921823 0.389814 0.278055 
-0.334813 -0.024923 0.933679 
-0.084270 0.193701 0.937570 
-0.482937 0.640284 0.554764 
-0.206625 0.973989 0.005076 
-0.887093 0.560856 0.062030 
-0.067086 0.952527 0.166228 
-0.947157 0.374762 0.220657 
-0.221534 -0.044779 0.968014 
-0.098673 0.052518 0.974618 
-0.150837 -0.112023 0.989571 
-0.344556 0.604445 0.644513 
-0.540517 0.486101 0.650047 
-0.361299 0.731941 0.507997 
-0.619538 0.581424 0.512949 
-0.484293 0.341472 0.767335 
-0.286068 0.481342 0.762098 
-0.422168 0.495693 0.706207 
-0.527080 0.765397 0.355433 
-0.140382 0.904974 0.284657 
-0.875349 0.444848 0.320991 
-0.204506 0.862216 0.353825 
-0.809685 0.502967 0.379610 
[...]
POINT_DATA 2044
SCALARS u float 1
LOOKUP_TABLE default
6.524021
2.052007
6.652894
2.291284
4.011140
6.513975
6.429178
6.291351
6.106772
5.870722
5.501817
5.168247
4.778865
4.373208
3.916195
3.479066
3.081938
2.750614
2.507847
2.287325
2.366745
2.606876
2.911792
3.311341
3.727380
4.207141
4.641284
5.062231
5.430732
5.750688
6.078756
6.298249
6.472160
6.585512
6.619810
6.600857
6.490717
6.275411
6.020985
5.747929
5.436186
5.093660
4.663303
4.308534
3.826356
3.378016
2.892933
2.586967
2.339941
2.070024
2.101634
2.425228
2.708439
3.090617
3.454639
3.876245
4.290964
4.682747
5.069836
5.433292
5.728878
5.998701
6.210500
6.392072
6.421883
6.569288
6.399631
5.981067
5.479961
4.763627
3.904816
2.921462
1.852736
0.742126
0.304950
1.288150
2.220356
2.897660
3.434032
3.890545
3.957720
3.889918
3.801322
3.627450
3.300552
3.019083
2.707928
2.281380
1.937921
1.622499
1.413586
1.283045
1.278383
1.418180
1.707158
3.929622
3.600211
3.068640
2.366398
1.356420
0.296472
0.868335
2.020293
3.078539
4.093327
4.934391
5.640801
6.187372
6.531209
6.717683
3.995393
3.939823
3.841630
3.629970
3.290778
2.923474
2.623130
2.076624
1.776880
1.430787
1.197187
1.131072
1.327335
1.634355
1.970368
4.114312
2.415759
2.137795
5.502779
5.956554
6.148864
6.408757
3.186814
1.452769
1.923815
4.454096
2.817241
4.898088
3.018657
2.742619
1.577714
5.345037
4.132414
3.371590
1.504520
2.100387
2.026137
3.054519
1.828694
5.823473
5.046222
3.572169
1.421235
2.452006
2.994209
6.185109
5.582298
2.489568
3.676898
1.444746
2.285847
3.278440
6.186636
6.346620
6.493322
2.581793
3.520478
2.743430
1.816142
4.537985
3.544665
3.495255
1.937918
2.670291
2.496580
2.625929
2.119339
1.809991
2.012040
2.595056
1.695757
2.576831
1.719565
3.166644
1.514196
2.331951
1.764158
2.945924
1.677809
5.165602
4.801983
1.824395
2.606794
2.139110
2.147912
2.864839
1.701349
1.777349
2.353613
3.178921
1.503617
1.909375
3.950556
3.563384
0.995484
1.665104
3.267454
1.996119
3.338397
2.121928
1.983849
2.954931
1.996031
5.717804
5.949150
3.069041
1.466229
3.228543
1.794991
2.864695
2.465988
3.491803
1.465465
1.594265
3.749595
3.493120
1.646955
2.562643
3.028769
2.664504
2.155566
3.546514
4.094924
3.007702
3.644891
1.038432
4.984639
4.144033
3.525785
3.054738
4.006716
2.981037
4.011761
2.377521
1.903375
4.702804
4.621958
5.299058
6.237135
3.310827
1.689731
2.275811
3.763673
2.323504
2.055781
2.115752
3.156359
2.128855
2.408936
1.995741
4.420583
2.065631
6.531305
0.848169
3.650073
2.547738
4.935565
3.604723
4.903313
5.260696
3.469746
3.732439
1.945232
5.061293
5.928828
5.663625
4.433794
5.583187
1.359897
3.856495
1.879789
3.990508
3.938557
1.670421
4.506218
1.383102
4.050262
0.372486
4.726958
2.168645
4.175095
1.075171
5.131814
1.801833
2.204525
5.336370
2.497082
3.039649
3.374300
3.717709
1.821651
4.029084
4.142257
2.026931
1.732755
2.284308
1.385716
3.406198
5.337546
2.537914
1.295545
2.876150
5.980490
4.265421
2.721225
1.401004
5.248849
3.010101
1.946049
2.667475
6.221170
1.383367
6.137366
2.593010
3.522209
2.549082
2.414893
6.387266
1.408906
6.382832
3.393844
3.777184
3.788529
1.895050
2.291925
2.154011
3.504907
1.395415
2.044932
1.756576
3.599303
1.456274
5.815344
1.746861
5.293971
3.440097
4.272356
2.145418
4.137041
2.838933
5.335826
1.618700
4.593400
4.839597
3.116363
5.744641
2.601790
2.618747
1.793623
4.753866
1.965903
4.830523
2.424979
5.412399
3.854430
4.877265
3.924911
3.392232
5.750889
2.639843
1.860395
1.594138
4.646976
2.443214
6.051510
1.666962
6.310751
3.618613
2.999986
5.920772
1.956005
2.700790
5.682732
3.180615
1.298008
5.315433
1.246757
5.767360
5.982309
3.028930
1.993532
6.530570
6.288848
2.182995
2.055990
2.475398
3.011796
2.325107
1.811392
1.585791
2.068072
1.665996
3.826376
1.344800
2.197864
1.963715
1.878956
1.964762
1.896782
1.806116
3.090580
2.534197
3.616849
2.106391
1.591125
3.426570
1.906904
3.359922
1.871523
2.467221
3.118015
2.957221
4.535458
2.847890
1.998123
4.926184
4.478088
2.275086
1.969320
4.217923
1.619697
2.542268
1.271102
2.184870
1.146177
0.768131
2.719282
1.655459
6.619941
1.864484
3.309232
3.046351
0.947205
3.187855
1.776620
6.681483
1.854703
6.610636
1.977820
2.030016
2.156395
2.549049
1.773792
3.663208
0.470186
2.215315
1.996034
3.159175
1.779483
3.890117
3.937870
1.745628
5.562155
2.621273
2.622773
3.147146
3.489316
4.278479
1.951588
4.580316
1.811580
1.978614
1.259961
2.184226
5.647600
3.859019
1.057799
2.744853
6.290887
3.311310
3.257172
4.658568
5.313075
1.358954
1.930762
3.238038
6.507760
3.012693
6.205558
1.520161
3.526820
2.589930
2.899334
6.608154
2.729898
6.454331
1.620998
3.612203
3.160667
2.461450
2.022892
3.821743
2.493959
1.959358
1.571201
1.866941
4.118599
5.920822
1.716185
5.442035
1.929576
4.725319
3.942624
4.492092
2.566008
5.654598
3.321048
4.793920
1.669185
3.652824
5.231838
3.053890
6.001883
1.865112
2.367093
2.225496
5.010255
2.979397
5.162236
4.294680
5.744871
4.370679
5.251091
6.123433
3.778746
1.725982
2.760379
4.662553
1.297771
6.319957
2.878961
6.416998
2.027687
3.549467
4.216378
2.374600
6.094816
3.289881
2.855521
3.624108
5.981285
5.327129
1.194125
5.821310
1.260679
3.441696
6.328203
6.684396
2.335885
2.568409
6.526401
2.706775
2.371671
2.635483
3.356577
1.684845
1.846730
2.294978
3.955783
1.547277
2.215895
1.472098
2.083830
2.098502
1.578842
1.978122
1.865050
3.998380
2.952528
1.911281
1.968084
3.609572
2.003727
2.638689
1.862114
2.347372
3.139084
3.643822
4.907847
2.210276
3.130397
4.843258
5.288268
1.805362
2.317673
1.355610
4.281634
1.448496
2.421998
1.269169
2.302443
2.638637
0.504331
6.691250
1.962142
3.406410
1.813236
0.981795
3.084587
1.677027
3.294946
2.164638
6.709996
2.262974
6.701748
2.833004
2.569740
1.931009
1.532819
3.688788
2.865221
1.966615
1.991443
1.583249
3.207770
3.593485
3.912100
3.977583
3.791340
4.386144
2.249987
2.373222
5.691583
6.051841
6.270903
6.482546
6.597517
3.336075
1.517448
2.043500
4.713068
2.889758
5.100595
2.788305
1.738455
2.792419
5.539825
4.461315
1.434894
3.420849
2.051176
2.298520
3.108026
1.861697
5.136234
6.006177
1.342028
3.652578
2.492786
2.879800
6.260148
5.695687
2.677435
1.450198
3.776365
2.341969
3.262271
6.414668
6.185542
3.783336
2.707900
2.972761
1.967641
3.702709
4.757837
3.789406
2.071542
2.538933
2.633965
2.771342
2.169329
2.004272
2.132331
2.799341
1.878021
1.817508
2.638775
3.267747
1.486274
2.378653
1.936046
2.957478
1.696408
5.612442
4.888098
1.920004
2.802225
2.151312
2.311440
2.757656
1.571500
2.476068
1.944015
1.317150
3.204142
2.003653
4.140802
3.617617
1.027304
1.596604
3.337404
2.022180
3.280845
2.047961
2.219280
2.914246
1.997323
5.809883
6.132290
3.077668
1.582863
3.257451
1.801175
2.872309
2.449163
3.499886
1.212583
1.709923
3.864393
3.554934
1.628417
3.273672
2.687918
2.292720
2.905831
4.297024
3.834580
3.253271
3.740416
1.102320
4.254731
5.193742
3.226127
3.789091
4.772754
4.279624
3.101608
2.582302
2.066981
5.120010
4.378528
3.512375
1.784956
3.979289
2.373037
5.920349
2.252749
2.282965
2.213396
2.276099
3.383934
2.297029
1.938019
2.062554
4.588703
0.920024
3.728580
5.054490
2.662042
5.116371
3.613668
3.584912
5.425878
2.082182
3.771978
5.122371
6.077620
5.819002
4.316493
1.469743
3.988030
3.971048
2.097565
4.009988
1.862975
5.201613
4.604094
1.410260
4.112710
0.411947
3.507143
4.852995
2.126645
1.118664
4.284144
6.541415
6.435340
2.541907
2.281787
0.946215
1.174920
2.190385
1.971754
1.852976
2.115848
2.170574
2.212537
2.961376
1.451337
2.197103
1.352812
3.501898
2.491086
1.666105
3.587861
2.323724
3.086985
2.526762
2.533069
2.253288
4.057260
4.087067
2.312004
2.503461
3.226601
1.641516
2.335812
4.001964
3.371409
4.228751
2.678953
3.162014
3.367728
2.272646
1.383316
1.119308
1.869925
2.296314
1.171617
1.561394
1.216673
2.544632
4.843520
2.074478
4.668327
0.850295
5.018981
2.334110
4.620272
2.277014
2.316837
2.633876
4.118717
2.012074
2.099678
2.181023
2.965784
2.271792
2.354254
2.485710
4.974432
3.514584
1.930609
2.156545
2.246658
2.374862
2.616176
4.936187
2.506860
4.184780
3.309739
2.382366
2.239667
2.531511
2.061994
3.234834
1.298176
0.999760
0.521621
2.279210
2.719765
2.182812
2.776238
2.310001
2.429576
1.966831
4.458776
2.189952
1.892755
3.202108
2.340277
4.338731
3.308765
2.433814
2.261580
5.475459
1.520972
2.405423
5.395371
1.896303
5.193225
0.824436
1.805366
3.087995
2.114528
1.588656
2.880587
2.385481
3.117241
2.562541
2.273275
4.122566
2.170746
5.392533
0.592742
5.000285
2.162488
2.066385
2.340777
1.825398
5.302667
5.321211
4.103121
2.274544
4.919980
0.299344
2.558866
2.337256
2.320422
2.341756
3.178162
2.870706
3.051629
2.119916
2.425302
2.224661
2.147554
3.527022
3.038432
5.171668
4.306449
4.060674
2.229556
1.331092
2.757988
2.427648
1.767539
2.340566
3.769482
1.277248
2.003243
0.579558
1.515923
1.705423
2.374191
3.842927
5.693653
2.566429
2.346513
2.337044
2.374599
2.259281
3.037010
2.323173
2.404251
3.904615
1.852977
2.212104
2.871225
1.770091
1.511726
3.700669
0.903470
1.210335
2.319391
2.460581
2.343952
2.478364
5.809523
3.950327
3.943999
3.849987
2.270791
2.615733
2.464730
1.279074
5.478157
2.139564
2.714559
3.288107
2.364007
3.932351
1.534864
4.692116
5.208846
2.104792
3.008765
3.687863
4.656670
2.576451
2.074780
2.010597
2.408698
2.107768
4.317936
2.667715
1.347998
2.032653
5.561331
3.867701
2.331009
2.796860
5.567404
4.449017
2.750572
3.990833
1.169031
2.285124
2.189134
3.045532
5.439243
2.320192
2.311140
2.425248
2.112392
1.703145
2.459090
4.770485
2.689460
5.811498
4.593596
5.860134
2.121100
4.664759
2.249979
2.922319
2.269438
5.015974
5.721831
4.102501
5.683056
1.645299
2.340015
2.096321
3.122973
2.562288
3.683833
4.853728
2.534024
1.439603
1.837444
0.262840
2.465311
1.734355
3.772017
1.951768
3.265042
0.997130
4.391451
2.272817
2.412914
2.328387
2.653237
2.044919
2.209791
1.998216
2.441537
1.900936
2.112041
2.001169
3.846523
3.403649
5.053426
4.719156
3.782403
3.321735
3.705123
3.550212
4.771873
2.639127
2.248443
2.219814
1.985622
0.200794
2.277097
2.526293
1.982220
3.400629
2.367123
2.607223
1.689390
5.865573
1.694794
2.046383
2.247984
3.420015
3.711359
2.272138
0.911478
1.653271
1.471978
5.821483
2.046250
2.317614
2.327729
2.342095
4.508505
2.339461
1.819974
1.618086
2.480948
0.476987
0.957002
1.985302
2.056610
4.377597
2.849413
2.252943
2.740421
2.956973
1.781323
4.726656
3.884103
2.850959
1.206130
2.840160
3.104356
2.140094
2.350144
1.544093
2.235067
2.192892
3.527996
0.722636
1.145534
2.650608
4.960590
5.135196
1.719090
2.483116
5.730316
2.169829
1.932216
1.286197
3.454495
1.364473
4.040575
1.946764
2.335643
2.325365
3.490592
2.923106
2.124804
2.968662
2.062337
2.876473
2.896061
4.000032
3.489258
2.372439
2.040486
6.109219
2.043806
2.507699
2.423632
2.162934
3.433510
2.491078
2.394740
2.401701
2.463408
4.841887
6.027256
2.386358
2.480378
4.551779
2.329035
3.395636
1.698327
3.024614
4.549039
6.055486
2.240096
2.140491
3.579639
2.250240
3.575591
3.015203
1.820076
2.493766
2.178863
2.027991
1.915769
2.181887
2.204490
2.163127
5.884575
2.320694
1.894515
1.834927
2.964748
2.888650
1.563177
1.591065
1.759392
1.306144
1.996161
1.966423
2.202212
2.368736
1.986167
2.015233
5.509867
4.097030
4.610610
4.096701
2.074693
0.273733
0.479070
1.479039
0.413701
1.721104
1.729204
3.117152
5.532411
5.619193
2.715280
1.294955
2.228968
3.595764
3.679140
3.497725
3.633257
3.583351
3.204272
2.927236
3.551339
3.142428
2.924522
1.111101
2.476160
2.430015
3.522151
2.997419
2.312938
3.838382
3.651029
2.728896
3.144530
3.182862
2.761886
1.920344
2.607947
2.931474
2.741974
2.509739
2.139433
1.710619
2.842247
2.380968
1.901719
1.829349
2.067400
1.159949
2.431525
0.607003
2.050915
1.255233
2.347179
1.569461
2.734986
2.213009
1.321417
3.239151
2.072908
2.706792
2.375106
2.739445
1.030059
2.144457
2.282082
2.156468
2.423885
2.286102
4.074244
4.186251
3.361598
4.921790
1.533871
1.844172
2.903627
1.784692
2.495388
3.296064
2.273768
1.718103
4.466932
1.820556
1.998236
2.246963
2.417839
1.311076
1.939341
1.946252
1.684587
1.811519
2.685743
1.774511
1.928379
2.335330
1.898470
1.741174
1.707456
1.400665
1.209299
1.280806
1.785764
1.901938
3.499450
3.159806
2.194665
3.065581
2.172253
2.147738
2.026717
3.052022
2.154733
2.560318
3.618497
2.617043
3.234492
1.638095
4.776637
4.720494
5.630801
3.046928
3.250427
3.754030
3.601903
3.838557
0.681322
3.113091
2.188020
1.663028
4.359924
5.031352
2.410699
0.556459
2.004567
4.695061
2.371121
0.493150
2.754311
1.958263
0.359594
1.615381
2.405536
1.870288
1.662072
1.252590
1.168292
1.685826
0.621511
1.882342
2.293150
2.239423
1.802886
1.979031
1.147535
0.322703
1.734947
3.912073
2.705390
1.260968
1.552213
4.742550
1.732961
2.467373
1.801288
1.812457
2.740768
2.729709
1.356928
4.470844
2.484245
1.833865
2.286968
2.791832
3.705292
4.067419
1.658367
4.984138
4.088531
4.920423
5.101778
3.969313
3.867765
3.787768
2.961396
2.520890
3.828194
3.769382
3.818159
2.417613
3.598441
4.088535
1.689862
1.737047
2.551199
1.817848
1.965682
1.942623
3.333934
1.974560
1.900878
1.991972
1.846780
2.336410
1.638391
1.868959
1.606229
2.175726
1.790439
2.145790
2.122498
2.717329
1.944838
2.252400
2.127500
1.760466
1.194416
1.890111
1.814698
2.614312
1.786990
1.516880
1.743173
2.439946
1.693484
3.377851
3.038963
2.462339
3.636619
3.595070
3.237499
1.667382
2.416768
1.690981
1.798235
1.634573
1.713657
2.632031
2.973449
2.888915
2.956834
2.852183
1.304989
1.772810
3.891686
2.701523
1.266543
2.003455
1.838750
2.134401
3.323877
3.764537
2.885550
4.520577
2.961915
0.938432
4.763544
3.837402
1.863346
1.975634
1.977445
1.872353
1.911612
1.637940
2.003789
1.605547
3.617850
3.879812
3.846159
3.821746
3.828894
3.873281
3.619968
1.999294
2.302552
3.283347
5.136006
1.098971
2.479528
1.125976
1.809358
1.570307
4.302735
4.423092
3.561258
5.097305
2.276645
2.587643
2.445516
2.702895
2.472249
4.610033
3.197399
2.599869
1.731582
2.305353
3.073795
1.631940
1.545589
3.275306
2.286485
4.472029
1.696388
1.724695
1.789346
2.156388
1.945432
2.456181
1.490579
2.895265
1.941373
2.006628
3.389247
2.568406
1.911715
5.687651
0.957489
2.488349
2.122726
0.374918
1.691544
2.892278
2.298895
3.785663
1.756757
2.501946
2.081134
2.150358
2.255022
1.507069
1.319999
1.625572
1.782542
3.145922
1.340364
1.327886
3.499098
2.419706
1.652457
1.667866
1.769536
2.331580
1.690405
1.732116
1.535831
1.751254
1.086892
1.114006
2.342159
2.043982
2.237099
2.435795
1.422190
1.657116
1.394542
2.247404
2.036058
2.174720
2.281638
4.084245
1.971635
2.549567
2.130028
1.964006
1.565696
0.855830
1.937986
2.054497
0.864451
1.093241
1.936372
2.029157
3.823634
2.721488
3.078090
1.747850
2.826548
0.564587
0.912473
0.931235
2.087905
1.947377
2.130495
1.854115
1.974674
2.020821
2.720705
2.128836
2.859276
1.690103
1.843344
0.930776
1.717947
1.926879
2.047729
2.006775
2.105437
1.891633
2.163847
2.120173
2.066206
3.142373
2.957831
1.869623
2.167020
2.530552
1.894295
1.681919
1.867708
1.596914
5.210085
5.121410
2.015520
2.898927
0.737389
0.757548
0.716320
0.746284
1.851905
1.969534
4.265107
4.150946
4.192090
3.002069
3.331298
1.382843
1.447587
1.568733
2.632795
3.143391
3.041734
1.922760
2.334232
1.960963
1.847195
1.438176
1.716652
1.627852
3.422382
2.267037
1.738409
3.106796
2.943763
1.932213
2.083252
2.152777
2.224201
2.039059
2.023288
2.023819
1.895279
1.674489
3.760929
2.737638
3.762136
2.238210
1.951656
2.090623
2.072666
1.993156
2.122275
2.365686
2.005596
1.877110
2.046238
1.053357
0.302196
1.282886
1.724456
3.070608
3.051188
2.908940
1.683115
1.921591
2.102997
1.948814
1.516419
1.537889
2.390702
2.720013
2.315267
1.972730
0.405232
2.594679
2.857927
3.603895
5.068975
4.882240
4.843587
2.273498
2.243752
3.359444
2.636541
2.742804
2.581087
3.085555
2.214141
2.354737
2.473178
4.049556
3.701551
1.951209
2.273299
2.463242
2.243918
2.382713
2.422564
2.625123
1.893837
2.062114
1.944902
2.283748
1.872970
2.061008
1.958557
1.933803
1.633984
2.376528
3.290784
1.595670
1.334229
1.400814
1.103658
2.005272
1.907669
2.062544
2.033318
1.316807
3.861586
2.769280
2.147345
2.208573
2.292141
4.951838
1.952816
1.174549
1.690613
2.339288
1.578363
1.996158
1.939667
1.910382
1.904215
3.112437
2.974353
2.003736
2.122213
2.472148
2.366025
2.261388
1.985567
2.163332
1.896456
4.743838
4.635602
4.352584
2.756765
0.268362
0.200157
3.501424
4.232498
4.227965
3.697538
4.176611
1.981276
2.013193
1.834187
1.254870
1.352432
1.829793
2.053511
1.127868
1.656327
1.293770
1.451519
3.125895
3.279910
3.112865
1.924728
4.086523
3.941008
1.819843
1.904787
1.950916
1.348969
1.782407
0.260857
1.122988
2.202322
1.608162
1.561774
3.214463
2.373033
4.032325
1.682829
1.579831
1.943928
1.161349
1.005902
2.150343
2.100820
2.806744
2.706154
2.279895
3.192060
3.054779
1.892913
2.116033
1.719471
3.712522
2.633390
1.290890
2.320277
2.262347
2.512586
1.717869
1.671230
1.757098
1.999212
1.906159
1.962326
3.689574
3.633377
5.300740
3.627163
1.975313
1.916914
1.928765
2.883710
3.217373
3.943060
2.532167
3.182105
1.508553
1.228232
1.869556
1.575475
1.959585
3.811355
3.914187
3.724819
1.949237
1.822118
1.800589
2.301591
2.041987
1.038350
0.943265
1.442772
1.352810
1.635496
2.013073
1.820367
2.620911
2.091233
3.040241
1.826277
1.708439
3.510182
2.035659
2.153784
2.120829
1.720638
1.924221
0.591746
2.406088
2.268142
2.035536
2.029788
1.795195
1.820435
1.747208
3.913670
2.260380
1.740023
1.906717
2.012165
1.990655
1.635609
2.200752
2.300303
2.247445
1.925324
1.254165
1.101009
1.941225
1.978657
1.831312
4.830510
4.716051
2.058341
2.058380
1.957979
1.753630
2.933073
1.320589
2.379235
3.286901
1.847206
2.110035
1.887717
1.944686
1.869685
1.524670
1.705075
2.721919
2.606514
1.877837
1.313107
1.379077
4.007638
4.835292
1.732012
3.939795
1.956370
1.966685
2.109389
2.044894
1.677606
1.725556
2.470308
1.493586
1.691842
2.216601
2.085528
2.053669
1.546850
1.573159
1.744115
1.898189
1.839395
2.646320
2.640336
4.513546
1.949888
3.630882
2.739795
2.879490
2.884629
2.707861
2.790636
2.984219
2.680050
2.670460
2.595660
2.556285
3.255093
1.049700
0.648664
1.246639
1.492942
0.673783
2.030103
1.151938
0.896650
1.039687
1.563865
1.089284
2.012210
2.334229
2.440521
3.042940
2.812902
2.956188
2.013116
2.580434
1.960783
1.866683
2.429036
1.775999
2.819273
2.938431
2.424407
2.637747
1.967266
1.774163
2.560667
2.698024
2.510164
2.519972
2.793000
2.111138
2.737638
2.241624
2.396095
1.987316
1.684376
2.531317
1.098600
1.571572
2.072053
1.165438
1.677263
2.992664
2.741991
2.457988
2.583159
0.996525
2.735598
2.593632
2.156193
2.044641
2.090643
2.352972
1.780323
1.572419
1.574301
1.961042
1.688037
2.165661
1.381771
1.003006
1.377903
0.959736
1.812727
1.953046
1.726723
1.741064
1.999105
1.888662
1.751314
1.676045
2.339089
2.226133
1.817119
2.357262
1.556510
1.448746
2.826286
2.066410
