# vtk DataFile Version 2.0
Unstructured Grid Example
ASCII
DATASET UNSTRUCTURED_GRID
POINTS 2044 float
0.999336 0.322776 -0.008209 
-0.005650 0.985634 -0.100376 
-1.002277 0.329249 -0.001082 
-0.007332 -1.007931 0.112883 
-0.001906 -0.198372 1.007296 
1.024624 0.223019 -0.000645 
1.037040 0.117959 0.008854 
1.039150 0.009470 0.018360 
1.030794 -0.101542 0.029533 
1.006923 -0.212549 0.042314 
0.970787 -0.327391 0.051647 
0.923511 -0.436791 0.061053 
0.860603 -0.541349 0.070005 
0.787199 -0.642792 0.080855 
0.698755 -0.735082 0.088162 
0.598533 -0.813715 0.093975 
0.489300 -0.879457 0.099621 
0.373425 -0.937143 0.105959 
0.250629 -0.976431 0.110911 
0.122573 -1.000787 0.110365 
-0.135956 -0.994579 0.110817 
-0.262996 -0.968369 0.108996 
-0.384668 -0.924532 0.103964 
-0.500538 -0.868512 0.099509 
-0.606442 -0.796293 0.091980 
-0.704666 -0.719011 0.092072 
-0.792435 -0.629147 0.084197 
-0.867160 -0.529397 0.074632 
-0.928632 -0.425554 0.066385 
-0.980188 -0.320024 0.058332 
-1.015137 -0.206201 0.049317 
-1.038132 -0.094869 0.035644 
-1.048782 0.015511 0.025596 
-1.045201 0.123992 0.016226 
-1.028060 0.227871 0.007187 
-0.970310 0.423587 -0.010364 
-0.926469 0.511146 -0.018685 
-0.880035 0.589544 -0.031427 
-0.826173 0.661335 -0.040023 
-0.765710 0.726128 -0.050309 
-0.699614 0.781418 -0.063172 
-0.630916 0.829434 -0.072926 
-0.562767 0.868670 -0.079550 
-0.489578 0.902491 -0.087931 
-0.417941 0.927087 -0.088185 
-0.348416 0.950659 -0.090003 
-0.281104 0.965460 -0.091932 
-0.211131 0.974914 -0.099014 
-0.141537 0.978605 -0.102656 
-0.074155 0.984328 -0.099037 
0.061256 0.983699 -0.096619 
0.127737 0.979772 -0.099343 
0.199637 0.975782 -0.096931 
0.270181 0.966850 -0.094302 
0.342800 0.951717 -0.088450 
0.413802 0.929651 -0.084051 
0.484873 0.902714 -0.076936 
0.557653 0.871112 -0.066900 
0.627253 0.830023 -0.058654 
0.697353 0.782169 -0.054522 
0.763979 0.725318 -0.044745 
0.823992 0.659937 -0.035943 
0.877723 0.585959 -0.027818 
0.925523 0.505928 -0.020086 
0.968387 0.414531 -0.010671 
0.997859 0.325053 0.091950 
0.984424 0.316637 0.188600 
0.961605 0.295907 0.284070 
0.924976 0.271177 0.378641 
0.880527 0.235735 0.468488 
0.831395 0.193243 0.553530 
0.769569 0.144537 0.632872 
0.705815 0.091684 0.706716 
0.633054 0.036693 0.772110 
0.555109 -0.014977 0.833270 
0.471604 -0.063587 0.886497 
0.382554 -0.109674 0.930733 
0.290441 -0.143029 0.967356 
0.191823 -0.169783 0.987672 
0.095881 -0.192243 1.005793 
-0.000699 -0.097655 1.003998 
-0.001281 0.002958 0.992862 
-0.003200 0.102369 0.965365 
-0.005700 0.203393 0.931109 
-0.006310 0.308353 0.889642 
-0.009861 0.406684 0.839297 
-0.003172 0.500460 0.776579 
0.002878 0.594260 0.704746 
0.001806 0.677281 0.628802 
0.000656 0.752250 0.542461 
-0.003794 0.817034 0.445521 
-0.006948 0.873824 0.344235 
-0.006990 0.922333 0.237784 
-0.007197 0.961546 0.127976 
-0.005756 0.983623 0.014521 
-0.096290 -0.194393 1.000787 
-0.192050 -0.178150 0.981680 
-0.288061 -0.151854 0.956775 
-0.379079 -0.117049 0.925490 
-0.467297 -0.067005 0.881633 
-0.550528 -0.013778 0.831288 
-0.630963 0.042817 0.774335 
-0.704862 0.099945 0.708890 
-0.770608 0.152320 0.636944 
-0.827369 0.202538 0.556701 
-0.879089 0.244190 0.472347 
-0.923742 0.279161 0.384895 
-0.958033 0.306213 0.292033 
-0.984061 0.323217 0.196519 
-0.998638 0.332447 0.097859 
0.002689 -0.295704 0.991688 
0.002560 -0.389854 0.971827 
0.003560 -0.480204 0.948810 
0.004784 -0.561932 0.912850 
0.003537 -0.633818 0.870453 
0.003929 -0.699558 0.817827 
0.005860 -0.763852 0.765274 
0.004110 -0.809678 0.702121 
0.004450 -0.860730 0.638738 
0.002284 -0.900457 0.571374 
-0.001792 -0.931911 0.503152 
-0.002313 -0.956093 0.428405 
-0.003218 -0.979396 0.351935 
-0.005097 -0.994163 0.274699 
-0.005635 -0.997117 0.195351 
0.659711 0.617975 0.448752 
0.284696 0.267379 0.869783 
0.239893 0.868494 0.336001 
0.802923 0.579489 0.301687 
0.857854 0.552499 0.224944 
0.894908 0.504467 0.201406 
0.916629 0.508158 0.117489 
0.383694 0.861022 0.278539 
0.451484 0.297374 0.798499 
0.211382 0.610876 0.680565 
0.581325 0.794181 0.254200 
0.650853 0.405687 0.632116 
0.608907 0.818606 0.145834 
0.710459 0.324408 0.624061 
0.157513 0.408691 0.825521 
0.153054 0.767343 0.518791 
0.711172 0.735039 0.180682 
0.771387 0.404336 0.518278 
0.107108 0.253724 0.907405 
0.090361 0.849487 0.385268 
0.300465 0.751751 0.502647 
0.316803 0.467230 0.759484 
0.301561 0.947806 0.084004 
0.394944 0.068590 0.898985 
0.778573 0.693394 0.124878 
0.840770 0.422598 0.414186 
0.075628 0.168602 0.945102 
0.055875 0.892340 0.300646 
0.192305 0.972991 0.034051 
0.268902 -0.034772 0.962815 
0.841164 0.633763 0.059738 
0.903541 0.368977 0.344680 
0.449317 0.626284 0.578173 
0.072631 0.098494 0.967813 
0.051883 0.922497 0.226182 
0.150328 0.978678 0.000745 
0.216164 -0.076197 0.981706 
0.935161 0.414433 0.224381 
0.884164 0.570062 0.049515 
0.956260 0.416766 0.128832 
0.552023 0.507665 0.630021 
0.516943 0.735377 0.406298 
0.399997 0.767382 0.434339 
0.435066 0.456910 0.726376 
0.633693 0.729674 0.318652 
0.670722 0.498259 0.552708 
0.586210 0.627543 0.491220 
0.295974 0.611000 0.658216 
0.301714 0.056427 0.937231 
0.227317 0.951967 0.119151 
0.276386 0.910717 0.220135 
0.344576 0.179158 0.889197 
0.253534 0.686939 0.598122 
0.257138 0.540305 0.731122 
0.346352 0.802971 0.401271 
0.392190 0.394440 0.783453 
0.219079 0.351957 0.845317 
0.196248 0.813990 0.442547 
0.345030 0.908194 0.190552 
0.425415 0.191256 0.847618 
0.234606 0.443307 0.794088 
0.224772 0.756761 0.520294 
0.189111 0.267339 0.891434 
0.160125 0.855796 0.372690 
0.733060 0.662822 0.291805 
0.787664 0.497853 0.425301 
0.368491 0.282308 0.839730 
0.311995 0.864753 0.307260 
0.269880 0.816124 0.417285 
0.305173 0.361781 0.816763 
0.074278 0.434240 0.823465 
0.075811 0.734910 0.560296 
0.157607 0.687016 0.612802 
0.157972 0.513440 0.764742 
0.056445 0.333025 0.876377 
0.052254 0.803108 0.465115 
0.573081 0.364269 0.709219 
0.498678 0.827296 0.265200 
0.363002 0.944210 -0.003510 
0.484144 0.027111 0.866540 
0.118860 0.884887 0.310388 
0.154453 0.193341 0.929030 
0.146154 0.957164 0.122931 
0.200504 0.024831 0.968011 
0.330310 0.670901 0.581141 
0.328637 0.543206 0.703984 
0.232032 0.152743 0.928807 
0.179432 0.915611 0.245361 
0.871789 0.480009 0.303063 
0.822265 0.627237 0.174608 
0.132813 0.338135 0.864650 
0.123010 0.809216 0.462334 
0.301619 0.959376 -0.028100 
0.414987 -0.030829 0.908917 
0.247381 0.968615 0.002134 
0.345152 -0.036357 0.939790 
0.042289 0.250464 0.908066 
0.035404 0.845505 0.388469 
0.070392 0.954150 0.133044 
0.097865 0.013288 0.986579 
0.138258 0.105883 0.958356 
0.102461 0.920865 0.223965 
0.500334 0.559627 0.615248 
0.485441 0.693190 0.485137 
0.428058 0.709153 0.500490 
0.445242 0.538501 0.664413 
0.628480 0.565146 0.529346 
0.618525 0.682869 0.404760 
0.520613 0.627116 0.533203 
0.414877 0.893724 0.177083 
0.507053 0.225291 0.802254 
0.685960 0.715727 0.278815 
0.729134 0.497651 0.497005 
0.545742 0.686349 0.447740 
0.566657 0.567690 0.570497 
0.681897 0.551601 0.491524 
0.610177 0.497701 0.599311 
0.567602 0.739064 0.359440 
0.366331 0.730182 0.501392 
0.387973 0.504821 0.718152 
0.732469 0.584362 0.400543 
0.679013 0.670200 0.360347 
0.831496 0.494508 0.367186 
0.876348 0.564364 0.138007 
0.432111 0.813368 0.341462 
0.488316 0.389315 0.740471 
0.559384 0.438553 0.672461 
0.505818 0.784013 0.339849 
0.393795 0.666575 0.563565 
0.377252 0.597713 0.643494 
0.131441 0.601031 0.697682 
0.462105 0.752177 0.420230 
0.496698 0.482712 0.677702 
0.071661 0.548243 0.748470 
0.074814 0.643762 0.665989 
0.535972 0.849464 0.179704 
0.628150 0.307624 0.697222 
0.969361 0.404635 0.053703 
0.500453 0.127469 0.834093 
0.393558 0.927699 0.090737 
0.718963 0.208346 0.669202 
0.592670 0.851345 0.032904 
0.710623 0.430357 0.561110 
0.651615 0.767502 0.224445 
0.663827 0.801950 0.065455 
0.775499 0.264693 0.593362 
0.130637 -0.093287 0.996698 
0.090595 0.979687 0.007437 
0.875426 0.326792 0.427070 
0.787249 0.700157 0.037721 
0.734981 0.749365 0.050334 
0.830992 0.312445 0.502256 
0.769260 0.666304 0.215318 
0.547823 0.294023 0.754450 
0.461721 0.862909 0.218553 
0.035800 0.981866 -0.027774 
0.057737 -0.136559 1.004900 
0.056681 -0.065617 1.002294 
0.036597 0.976028 0.051301 
0.517471 0.887516 0.011786 
0.651298 0.140759 0.740662 
0.440720 0.919709 0.004657 
0.571268 0.081184 0.805828 
0.559305 0.861279 0.090367 
0.673639 0.240630 0.696441 
0.475163 0.894797 0.109940 
0.584900 0.201384 0.768225 
0.658181 0.784231 0.153981 
-0.371404 0.409924 0.773420 
-0.274454 0.871692 0.294512 
-0.765046 0.617841 0.314454 
-0.288541 0.205240 0.897229 
-0.222277 0.131289 0.933479 
-0.193614 0.040359 0.956857 
-0.151480 -0.050000 0.980855 
-0.238974 0.760364 0.497977 
-0.707105 0.500648 0.509436 
-0.539689 0.822330 0.231962 
-0.227917 0.547160 0.719505 
-0.559162 0.336654 0.728504 
-0.148280 0.515267 0.760858 
-0.595626 0.240403 0.748508 
-0.400867 0.905422 0.152252 
-0.689059 0.760118 0.168329 
-0.176383 0.397459 0.833153 
-0.453678 0.170417 0.847025 
-0.306142 0.950937 0.065356 
-0.790432 0.691163 0.101230 
-0.635162 0.690255 0.379531 
-0.398099 0.807056 0.370741 
-0.110467 0.852420 0.387844 
-0.847768 0.410070 0.420588 
-0.136245 0.293167 0.890275 
-0.389131 0.070794 0.893480 
-0.247793 0.967606 0.007856 
-0.844353 0.637216 0.061134 
-0.084081 0.925311 0.226656 
-0.919110 0.414268 0.277647 
-0.333423 -0.035225 0.933826 
-0.083642 0.179605 0.938157 
-0.474068 0.645286 0.553883 
-0.200186 0.975547 -0.001985 
-0.880992 0.585644 0.059990 
-0.065468 0.950931 0.161057 
-0.945087 0.400267 0.220284 
-0.220502 -0.058346 0.968167 
-0.097873 0.037404 0.975147 
-0.150331 -0.127201 0.989900 
-0.337242 0.602480 0.643898 
-0.532916 0.491264 0.649920 
-0.352872 0.733138 0.506534 
-0.610825 0.592403 0.511923 
-0.478716 0.341261 0.767731 
-0.280754 0.475106 0.762419 
-0.415148 0.495154 0.706354 
-0.516492 0.774856 0.352844 
-0.136414 0.903105 0.280803 
-0.870869 0.467720 0.320340 
-0.198495 0.860729 0.350552 
-0.803566 0.523267 0.378609 
[...]
POINT_DATA 2044
SCALARS u float 1
LOOKUP_TABLE default
6.524021
2.052007
6.652894
2.291284
4.011140
6.513975
6.429178
6.291351
6.106772
5.870722
5.501817
5.168247
4.778865
4.373208
3.916195
3.479066
3.081938
2.750614
2.507847
2.287325
2.366745
2.606876
2.911792
3.311341
3.727380
4.207141
4.641284
5.062231
5.430732
5.750688
6.078756
6.298249
6.472160
6.585512
6.619810
6.600857
6.490717
6.275411
6.020985
5.747929
5.436186
5.093660
4.663303
4.308534
3.826356
3.378016
2.892933
2.586967
2.339941
2.070024
2.101634
2.425228
2.708439
3.090617
3.454639
3.876245
4.290964
4.682747
5.069836
5.433292
5.728878
5.998701
6.210500
6.392072
6.421883
6.569288
6.399631
5.981067
5.479961
4.763627
3.904816
2.921462
1.852736
0.742126
0.304950
1.288150
2.220356
2.897660
3.434032
3.890545
3.957720
3.889918
3.801322
3.627450
3.300552
3.019083
2.707928
2.281380
1.937921
1.622499
1.413586
1.283045
1.278383
1.418180
1.707158
3.929622
3.600211
3.068640
2.366398
1.356420
0.296472
0.868335
2.020293
3.078539
4.093327
4.934391
5.640801
6.187372
6.531209
6.717683
3.995393
3.939823
3.841630
3.629970
3.290778
2.923474
2.623130
2.076624
1.776880
1.430787
1.197187
1.131072
1.327335
1.634355
1.970368
4.114312
2.415759
2.137795
5.502779
5.956554
6.148864
6.408757
3.186814
1.452769
1.923815
4.454096
2.817241
4.898088
3.018657
2.742619
1.577714
5.345037
4.132414
3.371590
1.504520
2.100387
2.026137
3.054519
1.828694
5.823473
5.046222
3.572169
1.421235
2.452006
2.994209
6.185109
5.582298
2.489568
3.676898
1.444746
2.285847
3.278440
6.186636
6.346620
6.493322
2.581793
3.520478
2.743430
1.816142
4.537985
3.544665
3.495255
1.937918
2.670291
2.496580
2.625929
2.119339
1.809991
2.012040
2.595056
1.695757
2.576831
1.719565
3.166644
1.514196
2.331951
1.764158
2.945924
1.677809
5.165602
4.801983
1.824395
2.606794
2.139110
2.147912
2.864839
1.701349
1.777349
2.353613
3.178921
1.503617
1.909375
3.950556
3.563384
0.995484
1.665104
3.267454
1.996119
3.338397
2.121928
1.983849
2.954931
1.996031
5.717804
5.949150
3.069041
1.466229
3.228543
1.794991
2.864695
2.465988
3.491803
1.465465
1.594265
3.749595
3.493120
1.646955
2.562643
3.028769
2.664504
2.155566
3.546514
4.094924
3.007702
3.644891
1.038432
4.984639
4.144033
3.525785
3.054738
4.006716
2.981037
4.011761
2.377521
1.903375
4.702804
4.621958
5.299058
6.237135
3.310827
1.689731
2.275811
3.763673
2.323504
2.055781
2.115752
3.156359
2.128855
2.408936
1.995741
4.420583
2.065631
6.531305
0.848169
3.650073
2.547738
4.935565
3.604723
4.903313
5.260696
3.469746
3.732439
1.945232
5.061293
5.928828
5.663625
4.433794
5.583187
1.359897
3.856495
1.879789
3.990508
3.938557
1.670421
4.506218
1.383102
4.050262
0.372486
4.726958
2.168645
4.175095
1.075171
5.131814
1.801833
2.204525
5.336370
2.497082
3.039649
3.374300
3.717709
1.821651
4.029084
4.142257
2.026931
1.732755
2.284308
1.385716
3.406198
5.337546
2.537914
1.295545
2.876150
5.980490
4.265421
2.721225
1.401004
5.248849
3.010101
1.946049
2.667475
6.221170
1.383367
6.137366
2.593010
3.522209
2.549082
2.414893
6.387266
1.408906
6.382832
3.393844
3.777184
3.788529
1.895050
2.291925
2.154011
3.504907
1.395415
2.044932
1.756576
3.599303
1.456274
5.815344
1.746861
5.293971
3.440097
4.272356
2.145418
4.137041
2.838933
5.335826
1.618700
4.593400
4.839597
3.116363
5.744641
2.601790
2.618747
1.793623
4.753866
1.965903
4.830523
2.424979
5.412399
3.854430
4.877265
3.924911
3.392232
5.750889
2.639843
1.860395
1.594138
4.646976
2.443214
6.051510
1.666962
6.310751
3.618613
2.999986
5.920772
1.956005
2.700790
5.682732
3.180615
1.298008
5.315433
1.246757
5.767360
5.982309
3.028930
1.993532
6.530570
6.288848
2.182995
2.055990
2.475398
3.011796
2.325107
1.811392
1.585791
2.068072
1.665996
3.826376
1.344800
2.197864
1.963715
1.878956
1.964762
1.896782
1.806116
3.090580
2.534197
3.616849
2.106391
1.591125
3.426570
1.906904
3.359922
1.871523
2.467221
3.118015
2.957221
4.535458
2.847890
1.998123
4.926184
4.478088
2.275086
1.969320
4.217923
1.619697
2.542268
1.271102
2.184870
1.146177
0.768131
2.719282
1.655459
6.619941
1.864484
3.309232
3.046351
0.947205
3.187855
1.776620
6.681483
1.854703
6.610636
1.977820
2.030016
2.156395
2.549049
1.773792
3.663208
0.470186
2.215315
1.996034
3.159175
1.779483
3.890117
3.937870
1.745628
5.562155
2.621273
2.622773
3.147146
3.489316
4.278479
1.951588
4.580316
1.811580
1.978614
1.259961
2.184226
5.647600
3.859019
1.057799
2.744853
6.290887
3.311310
3.257172
4.658568
5.313075
1.358954
1.930762
3.238038
6.507760
3.012693
6.205558
1.520161
3.526820
2.589930
2.899334
6.608154
2.729898
6.454331
1.620998
3.612203
3.160667
2.461450
2.022892
3.821743
2.493959
1.959358
1.571201
1.866941
4.118599
5.920822
1.716185
5.442035
1.929576
4.725319
3.942624
4.492092
2.566008
5.654598
3.321048
4.793920
1.669185
3.652824
5.231838
3.053890
6.001883
1.865112
2.367093
2.225496
5.010255
2.979397
5.162236
4.294680
5.744871
4.370679
5.251091
6.123433
3.778746
1.725982
2.760379
4.662553
1.297771
6.319957
2.878961
6.416998
2.027687
3.549467
4.216378
2.374600
6.094816
3.289881
2.855521
3.624108
5.981285
5.327129
1.194125
5.821310
1.260679
3.441696
6.328203
6.684396
2.335885
2.568409
6.526401
2.706775
2.371671
2.635483
3.356577
1.684845
1.846730
2.294978
3.955783
1.547277
2.215895
1.472098
2.083830
2.098502
1.578842
1.978122
1.865050
3.998380
2.952528
1.911281
1.968084
3.609572
2.003727
2.638689
1.862114
2.347372
3.139084
3.643822
4.907847
2.210276
3.130397
4.843258
5.288268
1.805362
2.317673
1.355610
4.281634
1.448496
2.421998
1.269169
2.302443
2.638637
0.504331
6.691250
1.962142
3.406410
1.813236
0.981795
3.084587
1.677027
3.294946
2.164638
6.709996
2.262974
6.701748
2.833004
2.569740
1.931009
1.532819
3.688788
2.865221
1.966615
1.991443
1.583249
3.207770
3.593485
3.912100
3.977583
3.791340
4.386144
2.249987
2.373222
5.691583
6.051841
6.270903
6.482546
6.597517
3.336075
1.517448
2.043500
4.713068
2.889758
5.100595
2.788305
1.738455
2.792419
5.539825
4.461315
1.434894
3.420849
2.051176
2.298520
3.108026
1.861697
5.136234
6.006177
1.342028
3.652578
2.492786
2.879800
6.260148
5.695687
2.677435
1.450198
3.776365
2.341969
3.262271
6.414668
6.185542
3.783336
2.707900
2.972761
1.967641
3.702709
4.757837
3.789406
2.071542
2.538933
2.633965
2.771342
2.169329
2.004272
2.132331
2.799341
1.878021
1.817508
2.638775
3.267747
1.486274
2.378653
1.936046
2.957478
1.696408
5.612442
4.888098
1.920004
2.802225
2.151312
2.311440
2.757656
1.571500
2.476068
1.944015
1.317150
3.204142
2.003653
4.140802
3.617617
1.027304
1.596604
3.337404
2.022180
3.280845
2.047961
2.219280
2.914246
1.997323
5.809883
6.132290
3.077668
1.582863
3.257451
1.801175
2.872309
2.449163
3.499886
1.212583
1.709923
3.864393
3.554934
1.628417
3.273672
2.687918
2.292720
2.905831
4.297024
3.834580
3.253271
3.740416
1.102320
4.254731
5.193742
3.226127
3.789091
4.772754
4.279624
3.101608
2.582302
2.066981
5.120010
4.378528
3.512375
1.784956
3.979289
2.373037
5.920349
2.252749
2.282965
2.213396
2.276099
3.383934
2.297029
1.938019
2.062554
4.588703
0.920024
3.728580
5.054490
2.662042
5.116371
3.613668
3.584912
5.425878
2.082182
3.771978
5.122371
6.077620
5.819002
4.316493
1.469743
3.988030
3.971048
2.097565
4.009988
1.862975
5.201613
4.604094
1.410260
4.112710
0.411947
3.507143
4.852995
2.126645
1.118664
4.284144
6.541415
6.435340
2.541907
2.281787
0.946215
1.174920
2.190385
1.971754
1.852976
2.115848
2.170574
2.212537
2.961376
1.451337
2.197103
1.352812
3.501898
2.491086
1.666105
3.587861
2.323724
3.086985
2.526762
2.533069
2.253288
4.057260
4.087067
2.312004
2.503461
3.226601
1.641516
2.335812
4.001964
3.371409
4.228751
2.678953
3.162014
3.367728
2.272646
1.383316
1.119308
1.869925
2.296314
1.171617
1.561394
1.216673
2.544632
4.843520
2.074478
4.668327
0.850295
5.018981
2.334110
4.620272
2.277014
2.316837
2.633876
4.118717
2.012074
2.099678
2.181023
2.965784
2.271792
2.354254
2.485710
4.974432
3.514584
1.930609
2.156545
2.246658
2.374862
2.616176
4.936187
2.506860
4.184780
3.309739
2.382366
2.239667
2.531511
2.061994
3.234834
1.298176
0.999760
0.521621
2.279210
2.719765
2.182812
2.776238
2.310001
2.429576
1.966831
4.458776
2.189952
1.892755
3.202108
2.340277
4.338731
3.308765
2.433814
2.261580
5.475459
1.520972
2.405423
5.395371
1.896303
5.193225
0.824436
1.805366
3.087995
2.114528
1.588656
2.880587
2.385481
3.117241
2.562541
2.273275
4.122566
2.170746
5.392533
0.592742
5.000285
2.162488
2.066385
2.340777
1.825398
5.302667
5.321211
4.103121
2.274544
4.919980
0.299344
2.558866
2.337256
2.320422
2.341756
3.178162
2.870706
3.051629
2.119916
2.425302
2.224661
2.147554
3.527022
3.038432
5.171668
4.306449
4.060674
2.229556
1.331092
2.757988
2.427648
1.767539
2.340566
3.769482
1.277248
2.003243
0.579558
1.515923
1.705423
2.374191
3.842927
5.693653
2.566429
2.346513
2.337044
2.374599
2.259281
3.037010
2.323173
2.404251
3.904615
1.852977
2.212104
2.871225
1.770091
1.511726
3.700669
0.903470
1.210335
2.319391
2.460581
2.343952
2.478364
5.809523
3.950327
3.943999
3.849987
2.270791
2.615733
2.464730
1.279074
5.478157
2.139564
2.714559
3.288107
2.364007
3.932351
1.534864
4.692116
5.208846
2.104792
3.008765
3.687863
4.656670
2.576451
2.074780
2.010597
2.408698
2.107768
4.317936
2.667715
1.347998
2.032653
5.561331
3.867701
2.331009
2.796860
5.567404
4.449017
2.750572
3.990833
1.169031
2.285124
2.189134
3.045532
5.439243
2.320192
2.311140
2.425248
2.112392
1.703145
2.459090
4.770485
2.689460
5.811498
4.593596
5.860134
2.121100
4.664759
2.249979
2.922319
2.269438
5.015974
5.721831
4.102501
5.683056
1.645299
2.340015
2.096321
3.122973
2.562288
3.683833
4.853728
2.534024
1.439603
1.837444
0.262840
2.465311
1.734355
3.772017
1.951768
3.265042
0.997130
4.391451
2.272817
2.412914
2.328387
2.653237
2.044919
2.209791
1.998216
2.441537
1.900936
2.112041
2.001169
3.846523
3.403649
5.053426
4.719156
3.782403
3.321735
3.705123
3.550212
4.771873
2.639127
2.248443
2.219814
1.985622
0.200794
2.277097
2.526293
1.982220
3.400629
2.367123
2.607223
1.689390
5.865573
1.694794
2.046383
2.247984
3.420015
3.711359
2.272138
0.911478
1.653271
1.471978
5.821483
2.046250
2.317614
2.327729
2.342095
4.508505
2.339461
1.819974
1.618086
2.480948
0.476987
0.957002
1.985302
2.056610
4.377597
2.849413
2.252943
2.740421
2.956973
1.781323
4.726656
3.884103
2.850959
1.206130
2.840160
3.104356
2.140094
2.350144
1.544093
2.235067
2.192892
3.527996
0.722636
1.145534
2.650608
4.960590
5.135196
1.719090
2.483116
5.730316
2.169829
1.932216
1.286197
3.454495
1.364473
4.040575
1.946764
2.335643
2.325365
3.490592
2.923106
2.124804
2.968662
2.062337
2.876473
2.896061
4.000032
3.489258
2.372439
2.040486
6.109219
2.043806
2.507699
2.423632
2.162934
3.433510
2.491078
2.394740
2.401701
2.463408
4.841887
6.027256
2.386358
2.480378
4.551779
2.329035
3.395636
1.698327
3.024614
4.549039
6.055486
2.240096
2.140491
3.579639
2.250240
3.575591
3.015203
1.820076
2.493766
2.178863
2.027991
1.915769
2.181887
2.204490
2.163127
5.884575
2.320694
1.894515
1.834927
2.964748
2.888650
1.563177
1.591065
1.759392
1.306144
1.996161
1.966423
2.202212
2.368736
1.986167
2.015233
5.509867
4.097030
4.610610
4.096701
2.074693
0.273733
0.479070
1.479039
0.413701
1.721104
1.729204
3.117152
5.532411
5.619193
2.715280
1.294955
2.228968
3.595764
3.679140
3.497725
3.633257
3.583351
3.204272
2.927236
3.551339
3.142428
2.924522
1.111101
2.476160
2.430015
3.522151
2.997419
2.312938
3.838382
3.651029
2.728896
3.144530
3.182862
2.761886
1.920344
2.607947
2.931474
2.741974
2.509739
2.139433
1.710619
2.842247
2.380968
1.901719
1.829349
2.067400
1.159949
2.431525
0.607003
2.050915
1.255233
2.347179
1.569461
2.734986
2.213009
1.321417
3.239151
2.072908
2.706792
2.375106
2.739445
1.030059
2.144457
2.282082
2.156468
2.423885
2.286102
4.074244
4.186251
3.361598
4.921790
1.533871
1.844172
2.903627
1.784692
2.495388
3.296064
2.273768
1.718103
4.466932
1.820556
1.998236
2.246963
2.417839
1.311076
1.939341
1.946252
1.684587
1.811519
2.685743
1.774511
1.928379
2.335330
1.898470
1.741174
1.707456
1.400665
1.209299
1.280806
1.785764
1.901938
3.499450
3.159806
2.194665
3.065581
2.172253
2.147738
2.026717
3.052022
2.154733
2.560318
3.618497
2.617043
3.234492
1.638095
4.776637
4.720494
5.630801
3.046928
3.250427
3.754030
3.601903
3.838557
0.681322
3.113091
2.188020
1.663028
4.359924
5.031352
2.410699
0.556459
2.004567
4.695061
2.371121
0.493150
2.754311
1.958263
0.359594
1.615381
2.405536
1.870288
1.662072
1.252590
1.168292
1.685826
0.621511
1.882342
2.293150
2.239423
1.802886
1.979031
1.147535
0.322703
1.734947
3.912073
2.705390
1.260968
1.552213
4.742550
1.732961
2.467373
1.801288
1.812457
2.740768
2.729709
1.356928
4.470844
2.484245
1.833865
2.286968
2.791832
3.705292
4.067419
1.658367
4.984138
4.088531
4.920423
5.101778
3.969313
3.867765
3.787768
2.961396
2.520890
3.828194
3.769382
3.818159
2.417613
3.598441
4.088535
1.689862
1.737047
2.551199
1.817848
1.965682
1.942623
3.333934
1.974560
1.900878
1.991972
1.846780
2.336410
1.638391
1.868959
1.606229
2.175726
1.790439
2.145790
2.122498
2.717329
1.944838
2.252400
2.127500
1.760466
1.194416
1.890111
1.814698
2.614312
1.786990
1.516880
1.743173
2.439946
1.693484
3.377851
3.038963
2.462339
3.636619
3.595070
3.237499
1.667382
2.416768
1.690981
1.798235
1.634573
1.713657
2.632031
2.973449
2.888915
2.956834
2.852183
1.304989
1.772810
3.891686
2.701523
1.266543
2.003455
1.838750
2.134401
3.323877
3.764537
2.885550
4.520577
2.961915
0.938432
4.763544
3.837402
1.863346
1.975634
1.977445
1.872353
1.911612
1.637940
2.003789
1.605547
3.617850
3.879812
3.846159
3.821746
3.828894
3.873281
3.619968
1.999294
2.302552
3.283347
5.136006
1.098971
2.479528
1.125976
1.809358
1.570307
4.302735
4.423092
3.561258
5.097305
2.276645
2.587643
2.445516
2.702895
2.472249
4.610033
3.197399
2.599869
1.731582
2.305353
3.073795
1.631940
1.545589
3.275306
2.286485
4.472029
1.696388
1.724695
1.789346
2.156388
1.945432
2.456181
1.490579
2.895265
1.941373
2.006628
3.389247
2.568406
1.911715
5.687651
0.957489
2.488349
2.122726
0.374918
1.691544
2.892278
2.298895
3.785663
1.756757
2.501946
2.081134
2.150358
2.255022
1.507069
1.319999
1.625572
1.782542
3.145922
1.340364
1.327886
3.499098
2.419706
1.652457
1.667866
1.769536
2.331580
1.690405
1.732116
1.535831
1.751254
1.086892
1.114006
2.342159
2.043982
2.237099
2.435795
1.422190
1.657116
1.394542
2.247404
2.036058
2.174720
2.281638
4.084245
1.971635
2.549567
2.130028
1.964006
1.565696
0.855830
1.937986
2.054497
0.864451
1.093241
1.936372
2.029157
3.823634
2.721488
3.078090
1.747850
2.826548
0.564587
0.912473
0.931235
2.087905
1.947377
2.130495
1.854115
1.974674
2.020821
2.720705
2.128836
2.859276
1.690103
1.843344
0.930776
1.717947
1.926879
2.047729
2.006775
2.105437
1.891633
2.163847
2.120173
2.066206
3.142373
2.957831
1.869623
2.167020
2.530552
1.894295
1.681919
1.867708
1.596914
5.210085
5.121410
2.015520
2.898927
0.737389
0.757548
0.716320
0.746284
1.851905
1.969534
4.265107
4.150946
4.192090
3.002069
3.331298
1.382843
1.447587
1.568733
2.632795
3.143391
3.041734
1.922760
2.334232
1.960963
1.847195
1.438176
1.716652
1.627852
3.422382
2.267037
1.738409
3.106796
2.943763
1.932213
2.083252
2.152777
2.224201
2.039059
2.023288
2.023819
1.895279
1.674489
3.760929
2.737638
3.762136
2.238210
1.951656
2.090623
2.072666
1.993156
2.122275
2.365686
2.005596
1.877110
2.046238
1.053357
0.302196
1.282886
1.724456
3.070608
3.051188
2.908940
1.683115
1.921591
2.102997
1.948814
1.516419
1.537889
2.390702
2.720013
2.315267
1.972730
0.405232
2.594679
2.857927
3.603895
5.068975
4.882240
4.843587
2.273498
2.243752
3.359444
2.636541
2.742804
2.581087
3.085555
2.214141
2.354737
2.473178
4.049556
3.701551
1.951209
2.273299
2.463242
2.243918
2.382713
2.422564
2.625123
1.893837
2.062114
1.944902
2.283748
1.872970
2.061008
1.958557
1.933803
1.633984
2.376528
3.290784
1.595670
1.334229
1.400814
1.103658
2.005272
1.907669
2.062544
2.033318
1.316807
3.861586
2.769280
2.147345
2.208573
2.292141
4.951838
1.952816
1.174549
1.690613
2.339288
1.578363
1.996158
1.939667
1.910382
1.904215
3.112437
2.974353
2.003736
2.122213
2.472148
2.366025
2.261388
1.985567
2.163332
1.896456
4.743838
4.635602
4.352584
2.756765
0.268362
0.200157
3.501424
4.232498
4.227965
3.697538
4.176611
1.981276
2.013193
1.834187
1.254870
1.352432
1.829793
2.053511
1.127868
1.656327
1.293770
1.451519
3.125895
3.279910
3.112865
1.924728
4.086523
3.941008
1.819843
1.904787
1.950916
1.348969
1.782407
0.260857
1.122988
2.202322
1.608162
1.561774
3.214463
2.373033
4.032325
1.682829
1.579831
1.943928
1.161349
1.005902
2.150343
2.100820
2.806744
2.706154
2.279895
3.192060
3.054779
1.892913
2.116033
1.719471
3.712522
2.633390
1.290890
2.320277
2.262347
2.512586
1.717869
1.671230
1.757098
1.999212
1.906159
1.962326
3.689574
3.633377
5.300740
3.627163
1.975313
1.916914
1.928765
2.883710
3.217373
3.943060
2.532167
3.182105
1.508553
1.228232
1.869556
1.575475
1.959585
3.811355
3.914187
3.724819
1.949237
1.822118
1.800589
2.301591
2.041987
1.038350
0.943265
1.442772
1.352810
1.635496
2.013073
1.820367
2.620911
2.091233
3.040241
1.826277
1.708439
3.510182
2.035659
2.153784
2.120829
1.720638
1.924221
0.591746
2.406088
2.268142
2.035536
2.029788
1.795195
1.820435
1.747208
3.913670
2.260380
1.740023
1.906717
2.012165
1.990655
1.635609
2.200752
2.300303
2.247445
1.925324
1.254165
1.101009
1.941225
1.978657
1.831312
4.830510
4.716051
2.058341
2.058380
1.957979
1.753630
2.933073
1.320589
2.379235
3.286901
1.847206
2.110035
1.887717
1.944686
1.869685
1.524670
1.705075
2.721919
2.606514
1.877837
1.313107
1.379077
4.007638
4.835292
1.732012
3.939795
1.956370
1.966685
2.109389
2.044894
1.677606
1.725556
2.470308
1.493586
1.691842
2.216601
2.085528
2.053669
1.546850
1.573159
1.744115
1.898189
1.839395
2.646320
2.640336
4.513546
1.949888
3.630882
2.739795
2.879490
2.884629
2.707861
2.790636
2.984219
2.680050
2.670460
2.595660
2.556285
3.255093
1.049700
0.648664
1.246639
1.492942
0.673783
2.030103
1.151938
0.896650
1.039687
1.563865
1.089284
2.012210
2.334229
2.440521
3.042940
2.812902
2.956188
2.013116
2.580434
1.960783
1.866683
2.429036
1.775999
2.819273
2.938431
2.424407
2.637747
1.967266
1.774163
2.560667
2.698024
2.510164
2.519972
2.793000
2.111138
2.737638
2.241624
2.396095
1.987316
1.684376
2.531317
1.098600
1.571572
2.072053
1.165438
1.677263
2.992664
2.741991
2.457988
2.583159
0.996525
2.735598
2.593632
2.156193
2.044641
2.090643
2.352972
1.780323
1.572419
1.574301
1.961042
1.688037
2.165661
1.381771
1.003006
1.377903
0.959736
1.812727
1.953046
1.726723
1.741064
1.999105
1.888662
1.751314
1.676045
2.339089
2.226133
1.817119
2.357262
1.556510
1.448746
2.826286
2.066410
