# vtk DataFile Version 2.0
Unstructured Grid Example
ASCII
DATASET UNSTRUCTURED_GRID
POINTS 2044 float
1.000634 -0.308160 0.007837 
0.005394 1.013715 0.095831 
-0.997826 -0.314340 0.001033 
0.007000 -0.992428 -0.107771 
0.001819 0.189390 0.993035 
0.967078 -0.404516 0.000616 
0.927078 -0.493964 -0.008453 
0.878453 -0.576466 -0.017529 
0.821806 -0.651094 -0.028196 
0.762580 -0.718524 -0.040398 
0.698461 -0.773417 -0.049308 
0.629325 -0.823048 -0.058288 
0.560561 -0.865359 -0.066835 
0.488507 -0.897333 -0.077194 
0.418870 -0.923493 -0.084170 
0.350018 -0.947039 -0.089720 
0.280895 -0.966291 -0.095110 
0.210909 -0.975841 -0.101161 
0.142067 -0.984943 -0.105889 
0.074573 -0.989836 -0.105367 
-0.061797 -0.995763 -0.105799 
-0.130259 -0.992639 -0.104060 
-0.200175 -0.987881 -0.099256 
-0.270165 -0.976740 -0.095003 
-0.342466 -0.963672 -0.087815 
-0.413225 -0.938836 -0.087903 
-0.483508 -0.910359 -0.080384 
-0.554301 -0.876770 -0.071253 
-0.624436 -0.833776 -0.063379 
-0.689486 -0.780450 -0.055691 
-0.754737 -0.724584 -0.047084 
-0.814800 -0.657465 -0.034030 
-0.869257 -0.582234 -0.024437 
-0.919286 -0.499725 -0.015491 
-0.963798 -0.409149 -0.006861 
-1.018933 -0.212811 0.009895 
-1.032642 -0.106653 0.017839 
-1.030363 0.004577 0.030004 
-1.017162 0.116650 0.038211 
-0.992870 0.228200 0.048031 
-0.957354 0.339949 0.060312 
-0.908670 0.448184 0.069624 
-0.844910 0.552859 0.075948 
-0.772651 0.649393 0.083949 
-0.686968 0.740182 0.084192 
-0.588809 0.816296 0.085928 
-0.479664 0.884182 0.087769 
-0.365854 0.939781 0.094531 
-0.246219 0.982867 0.098008 
-0.120799 1.005550 0.094552 
0.133114 1.006151 0.092244 
0.259394 0.981753 0.094844 
0.376828 0.938951 0.092542 
0.490092 0.882855 0.090032 
0.594171 0.815286 0.084445 
0.690919 0.737734 0.080245 
0.777143 0.649180 0.073452 
0.849793 0.550528 0.063871 
0.912168 0.447622 0.055998 
0.959513 0.339232 0.052053 
0.994523 0.228974 0.042718 
1.019244 0.117984 0.034315 
1.032571 0.007999 0.026558 
1.033545 -0.101672 0.019176 
1.020769 -0.204165 0.010188 
0.992632 -0.310335 0.103810 
0.977311 -0.302299 0.201287 
0.952487 -0.282508 0.296218 
0.922832 -0.258897 0.386543 
0.883253 -0.225060 0.474173 
0.831541 -0.184492 0.557518 
0.776296 -0.137992 0.635846 
0.708340 -0.087532 0.707480 
0.635672 -0.035032 0.773870 
0.556011 0.014299 0.829751 
0.471199 0.060708 0.877553 
0.382807 0.104708 0.917336 
0.290136 0.136553 0.946996 
0.198209 0.162095 0.974211 
0.100057 0.183538 0.985056 
0.000667 0.284829 0.986770 
0.001223 0.378523 0.969255 
0.003055 0.469691 0.948897 
0.005442 0.553855 0.916977 
0.006024 0.627057 0.874550 
0.009414 0.697715 0.823997 
0.003029 0.762262 0.769603 
-0.002748 0.814843 0.709361 
-0.001724 0.864405 0.639731 
-0.000627 0.907102 0.568086 
0.003622 0.943871 0.496101 
0.006634 0.971669 0.419391 
0.006673 0.989981 0.340408 
0.006871 0.999154 0.259165 
0.005496 1.006223 0.177732 
-0.099666 0.185590 0.989836 
-0.197993 0.170083 0.979931 
-0.292408 0.144978 0.957098 
-0.386125 0.111749 0.922342 
-0.475310 0.063971 0.882196 
-0.560384 0.013154 0.831643 
-0.637668 -0.040878 0.771746 
-0.709250 -0.095420 0.705404 
-0.775304 -0.145423 0.631958 
-0.835384 -0.193367 0.554491 
-0.884625 -0.233133 0.470489 
-0.924011 -0.266520 0.380572 
-0.955897 -0.292347 0.288616 
-0.977658 -0.308581 0.193727 
-0.991888 -0.317394 0.098168 
-0.002567 0.090718 0.998523 
-0.002444 -0.009146 0.989338 
-0.003399 -0.108965 0.964702 
-0.004568 -0.211552 0.934409 
-0.003377 -0.316330 0.892870 
-0.003751 -0.418103 0.844495 
-0.005594 -0.510797 0.780397 
-0.003924 -0.609180 0.711867 
-0.004249 -0.689263 0.630245 
-0.002180 -0.765606 0.540482 
0.001711 -0.834195 0.441079 
0.002209 -0.893124 0.339032 
0.003072 -0.935502 0.231426 
0.004867 -0.968013 0.119086 
0.005380 -0.993340 0.005091 
0.872589 0.282194 0.467631 
0.389924 0.475685 0.857423 
0.432698 0.858654 0.410170 
0.977788 0.077413 0.328757 
1.005506 -0.003849 0.252018 
1.011840 -0.078233 0.226529 
1.023940 -0.101732 0.147595 
0.648651 0.726531 0.360735 
0.583931 0.342753 0.786223 
0.340725 0.744675 0.678141 
0.858478 0.470345 0.317335 
0.792099 0.172708 0.625072 
0.892769 0.448343 0.228646 
0.808162 0.049218 0.621799 
0.259051 0.653503 0.813112 
0.263308 0.868654 0.548389 
0.957403 0.284338 0.240816 
0.883900 0.020725 0.520040 
0.164113 0.574380 0.889563 
0.180102 0.944858 0.448792 
0.501427 0.757155 0.532190 
0.485829 0.566003 0.749772 
0.540004 0.839993 0.221262 
0.450849 0.235977 0.886604 
0.995983 0.177015 0.183790 
0.937671 -0.055768 0.423803 
0.106703 0.512138 0.924124 
0.125563 0.974496 0.386074 
0.368981 0.933135 0.187236 
0.295851 0.252943 0.942850 
1.024512 0.066827 0.114459 
0.958738 -0.168108 0.356229 
0.674964 0.542744 0.588677 
0.097143 0.452642 0.945330 
0.116952 0.988594 0.330736 
0.296080 0.962947 0.166304 
0.233224 0.239762 0.960056 
0.996041 -0.180741 0.240701 
1.034706 -0.023556 0.093395 
1.013642 -0.208496 0.147666 
0.746446 0.351009 0.623587 
0.779938 0.523001 0.447786 
0.643545 0.671574 0.478425 
0.610063 0.456877 0.710723 
0.886202 0.373890 0.367509 
0.842216 0.201309 0.551478 
0.817512 0.381767 0.511918 
0.469603 0.681712 0.657986 
0.353839 0.308515 0.915616 
0.424866 0.901547 0.248631 
0.500347 0.848886 0.322860 
0.435245 0.361981 0.869432 
0.412172 0.760583 0.606535 
0.408732 0.661734 0.718400 
0.584603 0.744093 0.454141 
0.540841 0.460663 0.762727 
0.324672 0.577602 0.836507 
0.346468 0.866415 0.491114 
0.602958 0.782572 0.297974 
0.526213 0.297302 0.840405 
0.372158 0.621741 0.782508 
0.381546 0.818146 0.548240 
0.269672 0.540312 0.876744 
0.297345 0.910767 0.439731 
0.952701 0.215568 0.329852 
0.931085 0.056084 0.434063 
0.489288 0.410312 0.826578 
0.543225 0.802688 0.386490 
0.469994 0.813767 0.469942 
0.436299 0.522933 0.813157 
0.132525 0.704466 0.803565 
0.131060 0.888109 0.584119 
0.258729 0.825740 0.622507 
0.258381 0.717369 0.751534 
0.097765 0.637424 0.861893 
0.101766 0.931845 0.511314 
0.712358 0.243685 0.695771 
0.783391 0.583039 0.338276 
0.629331 0.786055 0.147791 
0.513675 0.118556 0.860208 
0.241316 0.949772 0.392501 
0.207335 0.504248 0.907627 
0.290539 0.957046 0.251162 
0.238650 0.344820 0.946691 
0.533988 0.689309 0.598904 
0.509762 0.606380 0.697983 
0.296272 0.430507 0.907868 
0.346490 0.920466 0.342083 
0.982496 -0.061710 0.319042 
1.006125 0.083505 0.216827 
0.209998 0.624496 0.850832 
0.219356 0.903755 0.505920 
0.541974 0.850298 0.138883 
0.433739 0.141489 0.898472 
0.459838 0.894304 0.163822 
0.366494 0.200569 0.921824 
0.078519 0.586242 0.900979 
0.085093 0.960707 0.454486 
0.148961 0.992845 0.259997 
0.122732 0.374331 0.961885 
0.176726 0.440969 0.937548 
0.210902 0.973342 0.328234 
0.718159 0.441287 0.612260 
0.732378 0.537847 0.512404 
0.664549 0.610366 0.528006 
0.648142 0.491717 0.653080 
0.832992 0.289702 0.533723 
0.857277 0.368725 0.440032 
0.758607 0.460591 0.550252 
0.694690 0.705429 0.279963 
0.606688 0.233933 0.792759 
0.926801 0.300656 0.326217 
0.886490 0.128946 0.500892 
0.801396 0.462764 0.479240 
0.781428 0.364721 0.573370 
0.875301 0.215800 0.500308 
0.794029 0.275556 0.595037 
0.834677 0.461613 0.407556 
0.590091 0.686880 0.532344 
0.569428 0.529070 0.698365 
0.926303 0.173223 0.419961 
0.906772 0.286856 0.393530 
0.957596 -0.002232 0.379228 
1.023226 -0.019870 0.172267 
0.701815 0.653021 0.405773 
0.648154 0.360087 0.722617 
0.731876 0.302190 0.661320 
0.783017 0.554819 0.396424 
0.613870 0.624235 0.580871 
0.576124 0.598067 0.641982 
0.216421 0.787212 0.694654 
0.719959 0.594693 0.464368 
0.686932 0.404715 0.665796 
0.119474 0.775850 0.733705 
0.117907 0.831960 0.665133 
0.825933 0.546426 0.263232 
0.737414 0.140377 0.692516 
1.018628 -0.224997 0.072818 
0.564489 0.178596 0.829838 
0.666543 0.740469 0.213670 
0.765003 -0.033609 0.659949 
0.883922 0.487530 0.136780 
0.850619 0.110985 0.564552 
0.908830 0.374027 0.287914 
0.934663 0.380496 0.155067 
0.827298 -0.066877 0.586227 
0.144946 0.266931 0.976274 
0.183176 0.992514 0.170769 
0.922657 -0.160531 0.432424 
1.006108 0.174616 0.107576 
0.979474 0.265683 0.130804 
0.886327 -0.112900 0.502929 
0.982699 0.172355 0.262139 
0.665055 0.235305 0.743658 
0.747351 0.639987 0.307499 
0.084225 1.010109 0.145223 
0.063282 0.249083 0.988118 
0.066678 0.314481 0.977752 
0.085852 1.002829 0.202858 
0.816320 0.595615 0.136380 
0.688628 0.012359 0.735844 
0.730159 0.694974 0.143395 
0.605491 0.070095 0.803743 
0.854398 0.525999 0.188461 
0.744151 0.043379 0.684824 
0.766729 0.637756 0.219746 
0.661707 0.131865 0.758931 
0.926903 0.373754 0.229924 
-0.516976 0.505343 0.764008 
-0.468931 0.855601 0.380552 
-0.957418 0.141093 0.361513 
-0.371904 0.431148 0.877924 
-0.281366 0.419041 0.920130 
-0.234631 0.364179 0.952693 
-0.169703 0.309146 0.975048 
-0.398509 0.822632 0.539543 
-0.873479 0.148683 0.528603 
-0.812638 0.542796 0.321077 
-0.342428 0.706181 0.726555 
-0.694722 0.238615 0.717964 
-0.217675 0.725075 0.760457 
-0.683010 0.139029 0.740869 
-0.660972 0.736828 0.264074 
-0.943394 0.317989 0.248725 
-0.236206 0.635455 0.825427 
-0.537065 0.263074 0.833996 
-0.524335 0.848002 0.203974 
-1.001239 0.156748 0.169725 
-0.868465 0.353077 0.425942 
-0.632003 0.704354 0.434334 
-0.195997 0.931060 0.457628 
-0.935502 -0.090039 0.426367 
-0.186210 0.579735 0.876864 
-0.453098 0.247839 0.890953 
-0.436533 0.902639 0.171407 
-1.020310 0.064744 0.120542 
-0.139471 0.978656 0.336184 
-0.984576 -0.175765 0.287503 
-0.366960 0.213348 0.930274 
-0.098795 0.519716 0.924013 
-0.688068 0.524602 0.575133 
-0.355555 0.937945 0.168381 
-1.028220 -0.012449 0.109212 
-0.104512 0.989438 0.285837 
-0.995017 -0.215127 0.229291 
-0.245416 0.269010 0.964469 
-0.117177 0.402080 0.962393 
-0.162536 0.239016 0.981950 
-0.513715 0.649881 0.658731 
-0.716294 0.366668 0.652982 
-0.556203 0.704267 0.541832 
-0.821041 0.327519 0.536687 
-0.613277 0.346352 0.758190 
-0.408965 0.625566 0.754671 
-0.584545 0.508162 0.702809 
-0.771940 0.546628 0.415309 
-0.232149 0.948197 0.373803 
-0.978974 -0.084155 0.336056 
-0.343519 0.896611 0.429540 
-0.951185 0.033453 0.402752 
[...]
POINT_DATA 2044
SCALARS u float 1
LOOKUP_TABLE default
6.524021
2.052007
6.652894
2.291284
4.011140
6.513975
6.429178
6.291351
6.106772
5.870722
5.501817
5.168247
4.778865
4.373208
3.916195
3.479066
3.081938
2.750614
2.507847
2.287325
2.366745
2.606876
2.911792
3.311341
3.727380
4.207141
4.641284
5.062231
5.430732
5.750688
6.078756
6.298249
6.472160
6.585512
6.619810
6.600857
6.490717
6.275411
6.020985
5.747929
5.436186
5.093660
4.663303
4.308534
3.826356
3.378016
2.892933
2.586967
2.339941
2.070024
2.101634
2.425228
2.708439
3.090617
3.454639
3.876245
4.290964
4.682747
5.069836
5.433292
5.728878
5.998701
6.210500
6.392072
6.421883
6.569288
6.399631
5.981067
5.479961
4.763627
3.904816
2.921462
1.852736
0.742126
0.304950
1.288150
2.220356
2.897660
3.434032
3.890545
3.957720
3.889918
3.801322
3.627450
3.300552
3.019083
2.707928
2.281380
1.937921
1.622499
1.413586
1.283045
1.278383
1.418180
1.707158
3.929622
3.600211
3.068640
2.366398
1.356420
0.296472
0.868335
2.020293
3.078539
4.093327
4.934391
5.640801
6.187372
6.531209
6.717683
3.995393
3.939823
3.841630
3.629970
3.290778
2.923474
2.623130
2.076624
1.776880
1.430787
1.197187
1.131072
1.327335
1.634355
1.970368
4.114312
2.415759
2.137795
5.502779
5.956554
6.148864
6.408757
3.186814
1.452769
1.923815
4.454096
2.817241
4.898088
3.018657
2.742619
1.577714
5.345037
4.132414
3.371590
1.504520
2.100387
2.026137
3.054519
1.828694
5.823473
5.046222
3.572169
1.421235
2.452006
2.994209
6.185109
5.582298
2.489568
3.676898
1.444746
2.285847
3.278440
6.186636
6.346620
6.493322
2.581793
3.520478
2.743430
1.816142
4.537985
3.544665
3.495255
1.937918
2.670291
2.496580
2.625929
2.119339
1.809991
2.012040
2.595056
1.695757
2.576831
1.719565
3.166644
1.514196
2.331951
1.764158
2.945924
1.677809
5.165602
4.801983
1.824395
2.606794
2.139110
2.147912
2.864839
1.701349
1.777349
2.353613
3.178921
1.503617
1.909375
3.950556
3.563384
0.995484
1.665104
3.267454
1.996119
3.338397
2.121928
1.983849
2.954931
1.996031
5.717804
5.949150
3.069041
1.466229
3.228543
1.794991
2.864695
2.465988
3.491803
1.465465
1.594265
3.749595
3.493120
1.646955
2.562643
3.028769
2.664504
2.155566
3.546514
4.094924
3.007702
3.644891
1.038432
4.984639
4.144033
3.525785
3.054738
4.006716
2.981037
4.011761
2.377521
1.903375
4.702804
4.621958
5.299058
6.237135
3.310827
1.689731
2.275811
3.763673
2.323504
2.055781
2.115752
3.156359
2.128855
2.408936
1.995741
4.420583
2.065631
6.531305
0.848169
3.650073
2.547738
4.935565
3.604723
4.903313
5.260696
3.469746
3.732439
1.945232
5.061293
5.928828
5.663625
4.433794
5.583187
1.359897
3.856495
1.879789
3.990508
3.938557
1.670421
4.506218
1.383102
4.050262
0.372486
4.726958
2.168645
4.175095
1.075171
5.131814
1.801833
2.204525
5.336370
2.497082
3.039649
3.374300
3.717709
1.821651
4.029084
4.142257
2.026931
1.732755
2.284308
1.385716
3.406198
5.337546
2.537914
1.295545
2.876150
5.980490
4.265421
2.721225
1.401004
5.248849
3.010101
1.946049
2.667475
6.221170
1.383367
6.137366
2.593010
3.522209
2.549082
2.414893
6.387266
1.408906
6.382832
3.393844
3.777184
3.788529
1.895050
2.291925
2.154011
3.504907
1.395415
2.044932
1.756576
3.599303
1.456274
5.815344
1.746861
5.293971
3.440097
4.272356
2.145418
4.137041
2.838933
5.335826
1.618700
4.593400
4.839597
3.116363
5.744641
2.601790
2.618747
1.793623
4.753866
1.965903
4.830523
2.424979
5.412399
3.854430
4.877265
3.924911
3.392232
5.750889
2.639843
1.860395
1.594138
4.646976
2.443214
6.051510
1.666962
6.310751
3.618613
2.999986
5.920772
1.956005
2.700790
5.682732
3.180615
1.298008
5.315433
1.246757
5.767360
5.982309
3.028930
1.993532
6.530570
6.288848
2.182995
2.055990
2.475398
3.011796
2.325107
1.811392
1.585791
2.068072
1.665996
3.826376
1.344800
2.197864
1.963715
1.878956
1.964762
1.896782
1.806116
3.090580
2.534197
3.616849
2.106391
1.591125
3.426570
1.906904
3.359922
1.871523
2.467221
3.118015
2.957221
4.535458
2.847890
1.998123
4.926184
4.478088
2.275086
1.969320
4.217923
1.619697
2.542268
1.271102
2.184870
1.146177
0.768131
2.719282
1.655459
6.619941
1.864484
3.309232
3.046351
0.947205
3.187855
1.776620
6.681483
1.854703
6.610636
1.977820
2.030016
2.156395
2.549049
1.773792
3.663208
0.470186
2.215315
1.996034
3.159175
1.779483
3.890117
3.937870
1.745628
5.562155
2.621273
2.622773
3.147146
3.489316
4.278479
1.951588
4.580316
1.811580
1.978614
1.259961
2.184226
5.647600
3.859019
1.057799
2.744853
6.290887
3.311310
3.257172
4.658568
5.313075
1.358954
1.930762
3.238038
6.507760
3.012693
6.205558
1.520161
3.526820
2.589930
2.899334
6.608154
2.729898
6.454331
1.620998
3.612203
3.160667
2.461450
2.022892
3.821743
2.493959
1.959358
1.571201
1.866941
4.118599
5.920822
1.716185
5.442035
1.929576
4.725319
3.942624
4.492092
2.566008
5.654598
3.321048
4.793920
1.669185
3.652824
5.231838
3.053890
6.001883
1.865112
2.367093
2.225496
5.010255
2.979397
5.162236
4.294680
5.744871
4.370679
5.251091
6.123433
3.778746
1.725982
2.760379
4.662553
1.297771
6.319957
2.878961
6.416998
2.027687
3.549467
4.216378
2.374600
6.094816
3.289881
2.855521
3.624108
5.981285
5.327129
1.194125
5.821310
1.260679
3.441696
6.328203
6.684396
2.335885
2.568409
6.526401
2.706775
2.371671
2.635483
3.356577
1.684845
1.846730
2.294978
3.955783
1.547277
2.215895
1.472098
2.083830
2.098502
1.578842
1.978122
1.865050
3.998380
2.952528
1.911281
1.968084
3.609572
2.003727
2.638689
1.862114
2.347372
3.139084
3.643822
4.907847
2.210276
3.130397
4.843258
5.288268
1.805362
2.317673
1.355610
4.281634
1.448496
2.421998
1.269169
2.302443
2.638637
0.504331
6.691250
1.962142
3.406410
1.813236
0.981795
3.084587
1.677027
3.294946
2.164638
6.709996
2.262974
6.701748
2.833004
2.569740
1.931009
1.532819
3.688788
2.865221
1.966615
1.991443
1.583249
3.207770
3.593485
3.912100
3.977583
3.791340
4.386144
2.249987
2.373222
5.691583
6.051841
6.270903
6.482546
6.597517
3.336075
1.517448
2.043500
4.713068
2.889758
5.100595
2.788305
1.738455
2.792419
5.539825
4.461315
1.434894
3.420849
2.051176
2.298520
3.108026
1.861697
5.136234
6.006177
1.342028
3.652578
2.492786
2.879800
6.260148
5.695687
2.677435
1.450198
3.776365
2.341969
3.262271
6.414668
6.185542
3.783336
2.707900
2.972761
1.967641
3.702709
4.757837
3.789406
2.071542
2.538933
2.633965
2.771342
2.169329
2.004272
2.132331
2.799341
1.878021
1.817508
2.638775
3.267747
1.486274
2.378653
1.936046
2.957478
1.696408
5.612442
4.888098
1.920004
2.802225
2.151312
2.311440
2.757656
1.571500
2.476068
1.944015
1.317150
3.204142
2.003653
4.140802
3.617617
1.027304
1.596604
3.337404
2.022180
3.280845
2.047961
2.219280
2.914246
1.997323
5.809883
6.132290
3.077668
1.582863
3.257451
1.801175
2.872309
2.449163
3.499886
1.212583
1.709923
3.864393
3.554934
1.628417
3.273672
2.687918
2.292720
2.905831
4.297024
3.834580
3.253271
3.740416
1.102320
4.254731
5.193742
3.226127
3.789091
4.772754
4.279624
3.101608
2.582302
2.066981
5.120010
4.378528
3.512375
1.784956
3.979289
2.373037
5.920349
2.252749
2.282965
2.213396
2.276099
3.383934
2.297029
1.938019
2.062554
4.588703
0.920024
3.728580
5.054490
2.662042
5.116371
3.613668
3.584912
5.425878
2.082182
3.771978
5.122371
6.077620
5.819002
4.316493
1.469743
3.988030
3.971048
2.097565
4.009988
1.862975
5.201613
4.604094
1.410260
4.112710
0.411947
3.507143
4.852995
2.126645
1.118664
4.284144
6.541415
6.435340
2.541907
2.281787
0.946215
1.174920
2.190385
1.971754
1.852976
2.115848
2.170574
2.212537
2.961376
1.451337
2.197103
1.352812
3.501898
2.491086
1.666105
3.587861
2.323724
3.086985
2.526762
2.533069
2.253288
4.057260
4.087067
2.312004
2.503461
3.226601
1.641516
2.335812
4.001964
3.371409
4.228751
2.678953
3.162014
3.367728
2.272646
1.383316
1.119308
1.869925
2.296314
1.171617
1.561394
1.216673
2.544632
4.843520
2.074478
4.668327
0.850295
5.018981
2.334110
4.620272
2.277014
2.316837
2.633876
4.118717
2.012074
2.099678
2.181023
2.965784
2.271792
2.354254
2.485710
4.974432
3.514584
1.930609
2.156545
2.246658
2.374862
2.616176
4.936187
2.506860
4.184780
3.309739
2.382366
2.239667
2.531511
2.061994
3.234834
1.298176
0.999760
0.521621
2.279210
2.719765
2.182812
2.776238
2.310001
2.429576
1.966831
4.458776
2.189952
1.892755
3.202108
2.340277
4.338731
3.308765
2.433814
2.261580
5.475459
1.520972
2.405423
5.395371
1.896303
5.193225
0.824436
1.805366
3.087995
2.114528
1.588656
2.880587
2.385481
3.117241
2.562541
2.273275
4.122566
2.170746
5.392533
0.592742
5.000285
2.162488
2.066385
2.340777
1.825398
5.302667
5.321211
4.103121
2.274544
4.919980
0.299344
2.558866
2.337256
2.320422
2.341756
3.178162
2.870706
3.051629
2.119916
2.425302
2.224661
2.147554
3.527022
3.038432
5.171668
4.306449
4.060674
2.229556
1.331092
2.757988
2.427648
1.767539
2.340566
3.769482
1.277248
2.003243
0.579558
1.515923
1.705423
2.374191
3.842927
5.693653
2.566429
2.346513
2.337044
2.374599
2.259281
3.037010
2.323173
2.404251
3.904615
1.852977
2.212104
2.871225
1.770091
1.511726
3.700669
0.903470
1.210335
2.319391
2.460581
2.343952
2.478364
5.809523
3.950327
3.943999
3.849987
2.270791
2.615733
2.464730
1.279074
5.478157
2.139564
2.714559
3.288107
2.364007
3.932351
1.534864
4.692116
5.208846
2.104792
3.008765
3.687863
4.656670
2.576451
2.074780
2.010597
2.408698
2.107768
4.317936
2.667715
1.347998
2.032653
5.561331
3.867701
2.331009
2.796860
5.567404
4.449017
2.750572
3.990833
1.169031
2.285124
2.189134
3.045532
5.439243
2.320192
2.311140
2.425248
2.112392
1.703145
2.459090
4.770485
2.689460
5.811498
4.593596
5.860134
2.121100
4.664759
2.249979
2.922319
2.269438
5.015974
5.721831
4.102501
5.683056
1.645299
2.340015
2.096321
3.122973
2.562288
3.683833
4.853728
2.534024
1.439603
1.837444
0.262840
2.465311
1.734355
3.772017
1.951768
3.265042
0.997130
4.391451
2.272817
2.412914
2.328387
2.653237
2.044919
2.209791
1.998216
2.441537
1.900936
2.112041
2.001169
3.846523
3.403649
5.053426
4.719156
3.782403
3.321735
3.705123
3.550212
4.771873
2.639127
2.248443
2.219814
1.985622
0.200794
2.277097
2.526293
1.982220
3.400629
2.367123
2.607223
1.689390
5.865573
1.694794
2.046383
2.247984
3.420015
3.711359
2.272138
0.911478
1.653271
1.471978
5.821483
2.046250
2.317614
2.327729
2.342095
4.508505
2.339461
1.819974
1.618086
2.480948
0.476987
0.957002
1.985302
2.056610
4.377597
2.849413
2.252943
2.740421
2.956973
1.781323
4.726656
3.884103
2.850959
1.206130
2.840160
3.104356
2.140094
2.350144
1.544093
2.235067
2.192892
3.527996
0.722636
1.145534
2.650608
4.960590
5.135196
1.719090
2.483116
5.730316
2.169829
1.932216
1.286197
3.454495
1.364473
4.040575
1.946764
2.335643
2.325365
3.490592
2.923106
2.124804
2.968662
2.062337
2.876473
2.896061
4.000032
3.489258
2.372439
2.040486
6.109219
2.043806
2.507699
2.423632
2.162934
3.433510
2.491078
2.394740
2.401701
2.463408
4.841887
6.027256
2.386358
2.480378
4.551779
2.329035
3.395636
1.698327
3.024614
4.549039
6.055486
2.240096
2.140491
3.579639
2.250240
3.575591
3.015203
1.820076
2.493766
2.178863
2.027991
1.915769
2.181887
2.204490
2.163127
5.884575
2.320694
1.894515
1.834927
2.964748
2.888650
1.563177
1.591065
1.759392
1.306144
1.996161
1.966423
2.202212
2.368736
1.986167
2.015233
5.509867
4.097030
4.610610
4.096701
2.074693
0.273733
0.479070
1.479039
0.413701
1.721104
1.729204
3.117152
5.532411
5.619193
2.715280
1.294955
2.228968
3.595764
3.679140
3.497725
3.633257
3.583351
3.204272
2.927236
3.551339
3.142428
2.924522
1.111101
2.476160
2.430015
3.522151
2.997419
2.312938
3.838382
3.651029
2.728896
3.144530
3.182862
2.761886
1.920344
2.607947
2.931474
2.741974
2.509739
2.139433
1.710619
2.842247
2.380968
1.901719
1.829349
2.067400
1.159949
2.431525
0.607003
2.050915
1.255233
2.347179
1.569461
2.734986
2.213009
1.321417
3.239151
2.072908
2.706792
2.375106
2.739445
1.030059
2.144457
2.282082
2.156468
2.423885
2.286102
4.074244
4.186251
3.361598
4.921790
1.533871
1.844172
2.903627
1.784692
2.495388
3.296064
2.273768
1.718103
4.466932
1.820556
1.998236
2.246963
2.417839
1.311076
1.939341
1.946252
1.684587
1.811519
2.685743
1.774511
1.928379
2.335330
1.898470
1.741174
1.707456
1.400665
1.209299
1.280806
1.785764
1.901938
3.499450
3.159806
2.194665
3.065581
2.172253
2.147738
2.026717
3.052022
2.154733
2.560318
3.618497
2.617043
3.234492
1.638095
4.776637
4.720494
5.630801
3.046928
3.250427
3.754030
3.601903
3.838557
0.681322
3.113091
2.188020
1.663028
4.359924
5.031352
2.410699
0.556459
2.004567
4.695061
2.371121
0.493150
2.754311
1.958263
0.359594
1.615381
2.405536
1.870288
1.662072
1.252590
1.168292
1.685826
0.621511
1.882342
2.293150
2.239423
1.802886
1.979031
1.147535
0.322703
1.734947
3.912073
2.705390
1.260968
1.552213
4.742550
1.732961
2.467373
1.801288
1.812457
2.740768
2.729709
1.356928
4.470844
2.484245
1.833865
2.286968
2.791832
3.705292
4.067419
1.658367
4.984138
4.088531
4.920423
5.101778
3.969313
3.867765
3.787768
2.961396
2.520890
3.828194
3.769382
3.818159
2.417613
3.598441
4.088535
1.689862
1.737047
2.551199
1.817848
1.965682
1.942623
3.333934
1.974560
1.900878
1.991972
1.846780
2.336410
1.638391
1.868959
1.606229
2.175726
1.790439
2.145790
2.122498
2.717329
1.944838
2.252400
2.127500
1.760466
1.194416
1.890111
1.814698
2.614312
1.786990
1.516880
1.743173
2.439946
1.693484
3.377851
3.038963
2.462339
3.636619
3.595070
3.237499
1.667382
2.416768
1.690981
1.798235
1.634573
1.713657
2.632031
2.973449
2.888915
2.956834
2.852183
1.304989
1.772810
3.891686
2.701523
1.266543
2.003455
1.838750
2.134401
3.323877
3.764537
2.885550
4.520577
2.961915
0.938432
4.763544
3.837402
1.863346
1.975634
1.977445
1.872353
1.911612
1.637940
2.003789
1.605547
3.617850
3.879812
3.846159
3.821746
3.828894
3.873281
3.619968
1.999294
2.302552
3.283347
5.136006
1.098971
2.479528
1.125976
1.809358
1.570307
4.302735
4.423092
3.561258
5.097305
2.276645
2.587643
2.445516
2.702895
2.472249
4.610033
3.197399
2.599869
1.731582
2.305353
3.073795
1.631940
1.545589
3.275306
2.286485
4.472029
1.696388
1.724695
1.789346
2.156388
1.945432
2.456181
1.490579
2.895265
1.941373
2.006628
3.389247
2.568406
1.911715
5.687651
0.957489
2.488349
2.122726
0.374918
1.691544
2.892278
2.298895
3.785663
1.756757
2.501946
2.081134
2.150358
2.255022
1.507069
1.319999
1.625572
1.782542
3.145922
1.340364
1.327886
3.499098
2.419706
1.652457
1.667866
1.769536
2.331580
1.690405
1.732116
1.535831
1.751254
1.086892
1.114006
2.342159
2.043982
2.237099
2.435795
1.422190
1.657116
1.394542
2.247404
2.036058
2.174720
2.281638
4.084245
1.971635
2.549567
2.130028
1.964006
1.565696
0.855830
1.937986
2.054497
0.864451
1.093241
1.936372
2.029157
3.823634
2.721488
3.078090
1.747850
2.826548
0.564587
0.912473
0.931235
2.087905
1.947377
2.130495
1.854115
1.974674
2.020821
2.720705
2.128836
2.859276
1.690103
1.843344
0.930776
1.717947
1.926879
2.047729
2.006775
2.105437
1.891633
2.163847
2.120173
2.066206
3.142373
2.957831
1.869623
2.167020
2.530552
1.894295
1.681919
1.867708
1.596914
5.210085
5.121410
2.015520
2.898927
0.737389
0.757548
0.716320
0.746284
1.851905
1.969534
4.265107
4.150946
4.192090
3.002069
3.331298
1.382843
1.447587
1.568733
2.632795
3.143391
3.041734
1.922760
2.334232
1.960963
1.847195
1.438176
1.716652
1.627852
3.422382
2.267037
1.738409
3.106796
2.943763
1.932213
2.083252
2.152777
2.224201
2.039059
2.023288
2.023819
1.895279
1.674489
3.760929
2.737638
3.762136
2.238210
1.951656
2.090623
2.072666
1.993156
2.122275
2.365686
2.005596
1.877110
2.046238
1.053357
0.302196
1.282886
1.724456
3.070608
3.051188
2.908940
1.683115
1.921591
2.102997
1.948814
1.516419
1.537889
2.390702
2.720013
2.315267
1.972730
0.405232
2.594679
2.857927
3.603895
5.068975
4.882240
4.843587
2.273498
2.243752
3.359444
2.636541
2.742804
2.581087
3.085555
2.214141
2.354737
2.473178
4.049556
3.701551
1.951209
2.273299
2.463242
2.243918
2.382713
2.422564
2.625123
1.893837
2.062114
1.944902
2.283748
1.872970
2.061008
1.958557
1.933803
1.633984
2.376528
3.290784
1.595670
1.334229
1.400814
1.103658
2.005272
1.907669
2.062544
2.033318
1.316807
3.861586
2.769280
2.147345
2.208573
2.292141
4.951838
1.952816
1.174549
1.690613
2.339288
1.578363
1.996158
1.939667
1.910382
1.904215
3.112437
2.974353
2.003736
2.122213
2.472148
2.366025
2.261388
1.985567
2.163332
1.896456
4.743838
4.635602
4.352584
2.756765
0.268362
0.200157
3.501424
4.232498
4.227965
3.697538
4.176611
1.981276
2.013193
1.834187
1.254870
1.352432
1.829793
2.053511
1.127868
1.656327
1.293770
1.451519
3.125895
3.279910
3.112865
1.924728
4.086523
3.941008
1.819843
1.904787
1.950916
1.348969
1.782407
0.260857
1.122988
2.202322
1.608162
1.561774
3.214463
2.373033
4.032325
1.682829
1.579831
1.943928
1.161349
1.005902
2.150343
2.100820
2.806744
2.706154
2.279895
3.192060
3.054779
1.892913
2.116033
1.719471
3.712522
2.633390
1.290890
2.320277
2.262347
2.512586
1.717869
1.671230
1.757098
1.999212
1.906159
1.962326
3.689574
3.633377
5.300740
3.627163
1.975313
1.916914
1.928765
2.883710
3.217373
3.943060
2.532167
3.182105
1.508553
1.228232
1.869556
1.575475
1.959585
3.811355
3.914187
3.724819
1.949237
1.822118
1.800589
2.301591
2.041987
1.038350
0.943265
1.442772
1.352810
1.635496
2.013073
1.820367
2.620911
2.091233
3.040241
1.826277
1.708439
3.510182
2.035659
2.153784
2.120829
1.720638
1.924221
0.591746
2.406088
2.268142
2.035536
2.029788
1.795195
1.820435
1.747208
3.913670
2.260380
1.740023
1.906717
2.012165
1.990655
1.635609
2.200752
2.300303
2.247445
1.925324
1.254165
1.101009
1.941225
1.978657
1.831312
4.830510
4.716051
2.058341
2.058380
1.957979
1.753630
2.933073
1.320589
2.379235
3.286901
1.847206
2.110035
1.887717
1.944686
1.869685
1.524670
1.705075
2.721919
2.606514
1.877837
1.313107
1.379077
4.007638
4.835292
1.732012
3.939795
1.956370
1.966685
2.109389
2.044894
1.677606
1.725556
2.470308
1.493586
1.691842
2.216601
2.085528
2.053669
1.546850
1.573159
1.744115
1.898189
1.839395
2.646320
2.640336
4.513546
1.949888
3.630882
2.739795
2.879490
2.884629
2.707861
2.790636
2.984219
2.680050
2.670460
2.595660
2.556285
3.255093
1.049700
0.648664
1.246639
1.492942
0.673783
2.030103
1.151938
0.896650
1.039687
1.563865
1.089284
2.012210
2.334229
2.440521
3.042940
2.812902
2.956188
2.013116
2.580434
1.960783
1.866683
2.429036
1.775999
2.819273
2.938431
2.424407
2.637747
1.967266
1.774163
2.560667
2.698024
2.510164
2.519972
2.793000
2.111138
2.737638
2.241624
2.396095
1.987316
1.684376
2.531317
1.098600
1.571572
2.072053
1.165438
1.677263
2.992664
2.741991
2.457988
2.583159
0.996525
2.735598
2.593632
2.156193
2.044641
2.090643
2.352972
1.780323
1.572419
1.574301
1.961042
1.688037
2.165661
1.381771
1.003006
1.377903
0.959736
1.812727
1.953046
1.726723
1.741064
1.999105
1.888662
1.751314
1.676045
2.339089
2.226133
1.817119
2.357262
1.556510
1.448746
2.826286
2.066410
