# vtk DataFile Version 2.0
Unstructured Grid Example
ASCII
DATASET UNSTRUCTURED_GRID
POINTS 2044 float
0.999537 0.225031 -0.005723 
-0.003939 0.989985 -0.069980 
-1.001587 0.229544 -0.000754 
-0.005112 -1.005529 0.078699 
-0.001329 -0.138300 1.005086 
1.015709 0.125801 -0.000450 
1.020005 0.023160 0.006173 
1.014255 -0.081303 0.012800 
0.998418 -0.186679 0.020590 
0.969070 -0.290934 0.029500 
0.928598 -0.396490 0.036007 
0.877936 -0.496630 0.042564 
0.814120 -0.591544 0.048806 
0.740926 -0.682225 0.056370 
0.655395 -0.764270 0.061464 
0.560033 -0.834370 0.065517 
0.457014 -0.892909 0.069454 
0.348248 -0.943138 0.073872 
0.233810 -0.977749 0.077325 
0.115137 -0.999091 0.076944 
-0.124467 -0.994762 0.077259 
-0.242433 -0.972129 0.075989 
-0.356087 -0.934346 0.072481 
-0.464849 -0.885279 0.069375 
-0.565547 -0.822223 0.064126 
-0.659516 -0.753066 0.064190 
-0.744576 -0.672713 0.058700 
-0.818692 -0.583212 0.052032 
-0.881506 -0.488796 0.046282 
-0.935152 -0.391353 0.040668 
-0.974796 -0.286509 0.034383 
-1.003534 -0.182026 0.024850 
-1.020970 -0.077091 0.017845 
-1.025694 0.027366 0.011312 
-1.018105 0.129184 0.005010 
-0.977843 0.324997 -0.007226 
-0.942917 0.415436 -0.013027 
-0.903324 0.498921 -0.021910 
-0.855761 0.576952 -0.027903 
-0.800902 0.648989 -0.035074 
-0.739543 0.713026 -0.044042 
-0.673946 0.770371 -0.050842 
-0.606477 0.819745 -0.055460 
-0.533432 0.863281 -0.061303 
-0.459618 0.898132 -0.061480 
-0.385658 0.929844 -0.062748 
-0.311864 0.952868 -0.064093 
-0.235101 0.969471 -0.069030 
-0.157754 0.979265 -0.071569 
-0.081381 0.987615 -0.069046 
0.072388 0.987177 -0.067360 
0.148133 0.980079 -0.069259 
0.227087 0.970077 -0.067578 
0.304249 0.953838 -0.065745 
0.381742 0.930581 -0.061665 
0.456733 0.899919 -0.058599 
0.530151 0.863437 -0.053638 
0.602911 0.821447 -0.046641 
0.671392 0.770782 -0.040892 
0.737967 0.713549 -0.038011 
0.799695 0.648424 -0.031195 
0.854241 0.575978 -0.025058 
0.901712 0.496422 -0.019394 
0.942258 0.411799 -0.014003 
0.976502 0.318683 -0.007440 
0.997049 0.226619 0.093787 
0.983322 0.220752 0.190566 
0.960192 0.206299 0.285952 
0.924644 0.189058 0.379865 
0.880949 0.164349 0.469369 
0.831417 0.134724 0.554148 
0.770611 0.100768 0.633333 
0.706206 0.063920 0.706834 
0.633459 0.025582 0.772383 
0.555249 -0.010442 0.832725 
0.471541 -0.044331 0.885111 
0.382593 -0.076462 0.928658 
0.290394 -0.099717 0.964202 
0.192813 -0.118368 0.985586 
0.096528 -0.134027 1.002581 
-0.000487 -0.038401 1.001329 
-0.000893 0.061140 0.989205 
-0.002231 0.159275 0.962814 
-0.003974 0.257687 0.928920 
-0.004399 0.357727 0.887304 
-0.006875 0.451770 0.836927 
-0.002212 0.541018 0.775498 
0.002006 0.628433 0.705461 
0.001259 0.706270 0.630495 
0.000458 0.776240 0.546431 
-0.002645 0.836683 0.453357 
-0.004844 0.888982 0.355878 
-0.004873 0.932813 0.253682 
-0.005017 0.967372 0.148300 
-0.004013 0.987124 0.039806 
-0.096813 -0.135526 0.999091 
-0.192970 -0.124202 0.981409 
-0.288734 -0.105869 0.956825 
-0.380170 -0.081604 0.925002 
-0.468539 -0.046714 0.881720 
-0.552055 -0.009606 0.831343 
-0.632002 0.029851 0.773934 
-0.705542 0.069679 0.708350 
-0.771336 0.106194 0.636172 
-0.828611 0.141205 0.556358 
-0.879947 0.170243 0.472060 
-0.923784 0.194624 0.384225 
-0.957702 0.213484 0.291503 
-0.983069 0.225339 0.196086 
-0.997592 0.231774 0.097907 
0.001875 -0.235840 0.992747 
0.001785 -0.330875 0.974540 
0.002482 -0.422692 0.951272 
0.003335 -0.507651 0.916190 
0.002466 -0.584633 0.873926 
0.002739 -0.655955 0.821958 
0.004085 -0.724648 0.767617 
0.002866 -0.778617 0.703631 
0.003103 -0.834166 0.637422 
0.001592 -0.879566 0.566588 
-0.001249 -0.916773 0.493536 
-0.001613 -0.946338 0.414559 
-0.002243 -0.972596 0.333266 
-0.003554 -0.990112 0.250592 
-0.003928 -0.996532 0.165876 
0.692690 0.565956 0.451677 
0.300998 0.299650 0.867869 
0.269762 0.866970 0.347492 
0.830013 0.501707 0.305881 
0.880728 0.466309 0.229138 
0.913023 0.414195 0.205298 
0.933254 0.413674 0.122153 
0.424741 0.840187 0.291273 
0.472003 0.304404 0.796597 
0.231420 0.631604 0.680190 
0.624262 0.744013 0.263981 
0.672735 0.369594 0.631025 
0.652883 0.761245 0.158663 
0.725595 0.281776 0.623711 
0.173243 0.446617 0.823598 
0.170135 0.783039 0.523376 
0.749318 0.665216 0.189998 
0.788818 0.344907 0.518551 
0.115939 0.303400 0.904641 
0.104264 0.864262 0.395109 
0.331598 0.752589 0.507223 
0.342989 0.482532 0.757980 
0.338500 0.931104 0.105268 
0.403605 0.094522 0.897067 
0.812254 0.613397 0.134005 
0.855782 0.348490 0.415676 
0.080443 0.221823 0.941852 
0.066671 0.905067 0.313881 
0.219675 0.966816 0.057782 
0.273077 0.009800 0.959722 
0.869568 0.545934 0.068215 
0.912092 0.285772 0.346470 
0.484274 0.613342 0.579800 
0.076429 0.153358 0.964330 
0.061963 0.932736 0.242379 
0.172908 0.976241 0.026393 
0.218807 -0.027249 0.978352 
0.944592 0.322229 0.226909 
0.907486 0.478098 0.056313 
0.965150 0.319900 0.131750 
0.582143 0.483396 0.629024 
0.557686 0.702476 0.412726 
0.437727 0.752539 0.441169 
0.462177 0.456904 0.723951 
0.672812 0.674556 0.326221 
0.697290 0.452256 0.552518 
0.622043 0.589468 0.494426 
0.322873 0.621955 0.658181 
0.309789 0.095480 0.933882 
0.257922 0.944156 0.139210 
0.311082 0.901139 0.236049 
0.358622 0.207481 0.886135 
0.278110 0.698348 0.599425 
0.280623 0.559117 0.729151 
0.383262 0.793849 0.409462 
0.415219 0.404699 0.780242 
0.235437 0.386913 0.843952 
0.219520 0.822112 0.450071 
0.384989 0.888733 0.207194 
0.441031 0.207685 0.846501 
0.255916 0.470950 0.792294 
0.249060 0.766270 0.524624 
0.201591 0.309628 0.889158 
0.181384 0.864312 0.383076 
0.767087 0.593534 0.297699 
0.809883 0.429415 0.426658 
0.387205 0.302138 0.837693 
0.347817 0.855138 0.319534 
0.300881 0.815759 0.425443 
0.325487 0.386746 0.816204 
0.083301 0.476104 0.820382 
0.084371 0.758644 0.563986 
0.173273 0.708507 0.614305 
0.173528 0.545033 0.762696 
0.062846 0.380182 0.874133 
0.059924 0.823052 0.472273 
0.594658 0.345588 0.707136 
0.542786 0.789455 0.276521 
0.404262 0.919708 0.019930 
0.488719 0.041277 0.865559 
0.137831 0.894939 0.323109 
0.162645 0.241507 0.925715 
0.168522 0.957146 0.142796 
0.206413 0.074403 0.964708 
0.361864 0.673753 0.583893 
0.356697 0.552993 0.703055 
0.241984 0.195774 0.925563 
0.205313 0.916363 0.260345 
0.888940 0.396086 0.305538 
0.850749 0.543002 0.181149 
0.144770 0.382498 0.862509 
0.137936 0.823862 0.469086 
0.338855 0.942478 -0.002231 
0.417892 -0.004134 0.907299 
0.280295 0.957103 0.027182 
0.348458 0.000348 0.937007 
0.047902 0.302483 0.906968 
0.043101 0.863352 0.398696 
0.082564 0.960145 0.152712 
0.101717 0.069220 0.982753 
0.144218 0.157794 0.955133 
0.119261 0.928995 0.240118 
0.534079 0.541294 0.614785 
0.523696 0.669124 0.489361 
0.464695 0.693849 0.504753 
0.476675 0.531253 0.662657 
0.660163 0.522474 0.530024 
0.655513 0.634201 0.410224 
0.557483 0.601318 0.535844 
0.458226 0.864554 0.193021 
0.522488 0.226630 0.800783 
0.723271 0.651424 0.286159 
0.753511 0.440531 0.497607 
0.585347 0.651711 0.452620 
0.599929 0.536246 0.570942 
0.711859 0.499579 0.492885 
0.638660 0.463286 0.598649 
0.608977 0.696081 0.366894 
0.400996 0.723474 0.506187 
0.416084 0.508577 0.715087 
0.762498 0.520668 0.403551 
0.714297 0.610813 0.365487 
0.851031 0.417553 0.369052 
0.899102 0.473855 0.143315 
0.473893 0.788527 0.351425 
0.513078 0.384787 0.737705 
0.586106 0.417428 0.670735 
0.548761 0.748506 0.348614 
0.427889 0.660016 0.566246 
0.408061 0.597768 0.643260 
0.144606 0.629874 0.697213 
0.502051 0.727780 0.427068 
0.526169 0.470629 0.675857 
0.079068 0.583504 0.746182 
0.081490 0.672918 0.665856 
0.580893 0.802518 0.192644 
0.645077 0.281715 0.696493 
0.976993 0.307092 0.056664 
0.510373 0.135390 0.833433 
0.435849 0.898693 0.109782 
0.726095 0.170863 0.667769 
0.637791 0.794983 0.048997 
0.732311 0.380880 0.561643 
0.691463 0.706545 0.234277 
0.705784 0.736658 0.079338 
0.783524 0.213326 0.592257 
0.132854 -0.037482 0.993534 
0.104937 0.981674 0.032740 
0.882743 0.251296 0.427900 
0.821155 0.618740 0.048543 
0.772858 0.674433 0.062801 
0.839565 0.246550 0.502360 
0.802326 0.589781 0.222571 
0.565985 0.284927 0.752778 
0.505971 0.828374 0.232332 
0.043302 0.986242 -0.000973 
0.058596 -0.076815 1.002300 
0.058229 -0.006732 0.998492 
0.044228 0.980180 0.074780 
0.563769 0.842295 0.031088 
0.657081 0.120867 0.739915 
0.485560 0.884893 0.026150 
0.576570 0.079466 0.805505 
0.605021 0.809337 0.105564 
0.684563 0.210072 0.694642 
0.520333 0.854976 0.126951 
0.596799 0.190614 0.766785 
0.699812 0.720640 0.165746 
-0.393956 0.424706 0.771962 
-0.304582 0.869199 0.307841 
-0.794848 0.543983 0.321745 
-0.301456 0.240238 0.894238 
-0.231431 0.175868 0.931411 
-0.199968 0.090525 0.956212 
-0.154304 0.005639 0.979955 
-0.263689 0.770010 0.504417 
-0.732880 0.446122 0.512406 
-0.581974 0.779024 0.245768 
-0.245657 0.571795 0.720597 
-0.580163 0.321466 0.726871 
-0.159030 0.547770 0.760796 
-0.609164 0.224698 0.747325 
-0.441163 0.879304 0.169575 
-0.728461 0.691623 0.180784 
-0.185651 0.434329 0.831956 
-0.466596 0.184772 0.845007 
-0.339945 0.934990 0.086831 
-0.823090 0.608372 0.111841 
-0.671305 0.638019 0.386721 
-0.434336 0.791146 0.380593 
-0.123717 0.864603 0.398655 
-0.861359 0.332593 0.421483 
-0.143985 0.337562 0.888198 
-0.399041 0.098222 0.893089 
-0.277033 0.957541 0.033194 
-0.871612 0.548529 0.070337 
-0.092662 0.933575 0.243624 
-0.929252 0.322860 0.279174 
-0.338618 0.003284 0.933276 
-0.085989 0.232295 0.935965 
-0.507221 0.626590 0.557175 
-0.224255 0.969722 0.024408 
-0.903800 0.492988 0.067615 
-0.071516 0.956896 0.180387 
-0.952822 0.304930 0.221679 
-0.224362 -0.007632 0.967594 
-0.100863 0.093900 0.973171 
-0.152222 -0.070467 0.988668 
-0.364581 0.609823 0.646196 
-0.561325 0.471962 0.650394 
-0.384372 0.728665 0.512002 
-0.643392 0.551367 0.515759 
-0.499562 0.342050 0.766253 
-0.300617 0.498415 0.761218 
-0.441391 0.497169 0.705804 
-0.556066 0.739499 0.362521 
-0.151245 0.910090 0.295210 
-0.887616 0.382224 0.322775 
-0.220962 0.866288 0.362788 
-0.826436 0.447386 0.382350 
[...]
POINT_DATA 2044
SCALARS u float 1
LOOKUP_TABLE default
6.524021
2.052007
6.652894
2.291284
4.011140
6.513975
6.429178
6.291351
6.106772
5.870722
5.501817
5.168247
4.778865
4.373208
3.916195
3.479066
3.081938
2.750614
2.507847
2.287325
2.366745
2.606876
2.911792
3.311341
3.727380
4.207141
4.641284
5.062231
5.430732
5.750688
6.078756
6.298249
6.472160
6.585512
6.619810
6.600857
6.490717
6.275411
6.020985
5.747929
5.436186
5.093660
4.663303
4.308534
3.826356
3.378016
2.892933
2.586967
2.339941
2.070024
2.101634
2.425228
2.708439
3.090617
3.454639
3.876245
4.290964
4.682747
5.069836
5.433292
5.728878
5.998701
6.210500
6.392072
6.421883
6.569288
6.399631
5.981067
5.479961
4.763627
3.904816
2.921462
1.852736
0.742126
0.304950
1.288150
2.220356
2.897660
3.434032
3.890545
3.957720
3.889918
3.801322
3.627450
3.300552
3.019083
2.707928
2.281380
1.937921
1.622499
1.413586
1.283045
1.278383
1.418180
1.707158
3.929622
3.600211
3.068640
2.366398
1.356420
0.296472
0.868335
2.020293
3.078539
4.093327
4.934391
5.640801
6.187372
6.531209
6.717683
3.995393
3.939823
3.841630
3.629970
3.290778
2.923474
2.623130
2.076624
1.776880
1.430787
1.197187
1.131072
1.327335
1.634355
1.970368
4.114312
2.415759
2.137795
5.502779
5.956554
6.148864
6.408757
3.186814
1.452769
1.923815
4.454096
2.817241
4.898088
3.018657
2.742619
1.577714
5.345037
4.132414
3.371590
1.504520
2.100387
2.026137
3.054519
1.828694
5.823473
5.046222
3.572169
1.421235
2.452006
2.994209
6.185109
5.582298
2.489568
3.676898
1.444746
2.285847
3.278440
6.186636
6.346620
6.493322
2.581793
3.520478
2.743430
1.816142
4.537985
3.544665
3.495255
1.937918
2.670291
2.496580
2.625929
2.119339
1.809991
2.012040
2.595056
1.695757
2.576831
1.719565
3.166644
1.514196
2.331951
1.764158
2.945924
1.677809
5.165602
4.801983
1.824395
2.606794
2.139110
2.147912
2.864839
1.701349
1.777349
2.353613
3.178921
1.503617
1.909375
3.950556
3.563384
0.995484
1.665104
3.267454
1.996119
3.338397
2.121928
1.983849
2.954931
1.996031
5.717804
5.949150
3.069041
1.466229
3.228543
1.794991
2.864695
2.465988
3.491803
1.465465
1.594265
3.749595
3.493120
1.646955
2.562643
3.028769
2.664504
2.155566
3.546514
4.094924
3.007702
3.644891
1.038432
4.984639
4.144033
3.525785
3.054738
4.006716
2.981037
4.011761
2.377521
1.903375
4.702804
4.621958
5.299058
6.237135
3.310827
1.689731
2.275811
3.763673
2.323504
2.055781
2.115752
3.156359
2.128855
2.408936
1.995741
4.420583
2.065631
6.531305
0.848169
3.650073
2.547738
4.935565
3.604723
4.903313
5.260696
3.469746
3.732439
1.945232
5.061293
5.928828
5.663625
4.433794
5.583187
1.359897
3.856495
1.879789
3.990508
3.938557
1.670421
4.506218
1.383102
4.050262
0.372486
4.726958
2.168645
4.175095
1.075171
5.131814
1.801833
2.204525
5.336370
2.497082
3.039649
3.374300
3.717709
1.821651
4.029084
4.142257
2.026931
1.732755
2.284308
1.385716
3.406198
5.337546
2.537914
1.295545
2.876150
5.980490
4.265421
2.721225
1.401004
5.248849
3.010101
1.946049
2.667475
6.221170
1.383367
6.137366
2.593010
3.522209
2.549082
2.414893
6.387266
1.408906
6.382832
3.393844
3.777184
3.788529
1.895050
2.291925
2.154011
3.504907
1.395415
2.044932
1.756576
3.599303
1.456274
5.815344
1.746861
5.293971
3.440097
4.272356
2.145418
4.137041
2.838933
5.335826
1.618700
4.593400
4.839597
3.116363
5.744641
2.601790
2.618747
1.793623
4.753866
1.965903
4.830523
2.424979
5.412399
3.854430
4.877265
3.924911
3.392232
5.750889
2.639843
1.860395
1.594138
4.646976
2.443214
6.051510
1.666962
6.310751
3.618613
2.999986
5.920772
1.956005
2.700790
5.682732
3.180615
1.298008
5.315433
1.246757
5.767360
5.982309
3.028930
1.993532
6.530570
6.288848
2.182995
2.055990
2.475398
3.011796
2.325107
1.811392
1.585791
2.068072
1.665996
3.826376
1.344800
2.197864
1.963715
1.878956
1.964762
1.896782
1.806116
3.090580
2.534197
3.616849
2.106391
1.591125
3.426570
1.906904
3.359922
1.871523
2.467221
3.118015
2.957221
4.535458
2.847890
1.998123
4.926184
4.478088
2.275086
1.969320
4.217923
1.619697
2.542268
1.271102
2.184870
1.146177
0.768131
2.719282
1.655459
6.619941
1.864484
3.309232
3.046351
0.947205
3.187855
1.776620
6.681483
1.854703
6.610636
1.977820
2.030016
2.156395
2.549049
1.773792
3.663208
0.470186
2.215315
1.996034
3.159175
1.779483
3.890117
3.937870
1.745628
5.562155
2.621273
2.622773
3.147146
3.489316
4.278479
1.951588
4.580316
1.811580
1.978614
1.259961
2.184226
5.647600
3.859019
1.057799
2.744853
6.290887
3.311310
3.257172
4.658568
5.313075
1.358954
1.930762
3.238038
6.507760
3.012693
6.205558
1.520161
3.526820
2.589930
2.899334
6.608154
2.729898
6.454331
1.620998
3.612203
3.160667
2.461450
2.022892
3.821743
2.493959
1.959358
1.571201
1.866941
4.118599
5.920822
1.716185
5.442035
1.929576
4.725319
3.942624
4.492092
2.566008
5.654598
3.321048
4.793920
1.669185
3.652824
5.231838
3.053890
6.001883
1.865112
2.367093
2.225496
5.010255
2.979397
5.162236
4.294680
5.744871
4.370679
5.251091
6.123433
3.778746
1.725982
2.760379
4.662553
1.297771
6.319957
2.878961
6.416998
2.027687
3.549467
4.216378
2.374600
6.094816
3.289881
2.855521
3.624108
5.981285
5.327129
1.194125
5.821310
1.260679
3.441696
6.328203
6.684396
2.335885
2.568409
6.526401
2.706775
2.371671
2.635483
3.356577
1.684845
1.846730
2.294978
3.955783
1.547277
2.215895
1.472098
2.083830
2.098502
1.578842
1.978122
1.865050
3.998380
2.952528
1.911281
1.968084
3.609572
2.003727
2.638689
1.862114
2.347372
3.139084
3.643822
4.907847
2.210276
3.130397
4.843258
5.288268
1.805362
2.317673
1.355610
4.281634
1.448496
2.421998
1.269169
2.302443
2.638637
0.504331
6.691250
1.962142
3.406410
1.813236
0.981795
3.084587
1.677027
3.294946
2.164638
6.709996
2.262974
6.701748
2.833004
2.569740
1.931009
1.532819
3.688788
2.865221
1.966615
1.991443
1.583249
3.207770
3.593485
3.912100
3.977583
3.791340
4.386144
2.249987
2.373222
5.691583
6.051841
6.270903
6.482546
6.597517
3.336075
1.517448
2.043500
4.713068
2.889758
5.100595
2.788305
1.738455
2.792419
5.539825
4.461315
1.434894
3.420849
2.051176
2.298520
3.108026
1.861697
5.136234
6.006177
1.342028
3.652578
2.492786
2.879800
6.260148
5.695687
2.677435
1.450198
3.776365
2.341969
3.262271
6.414668
6.185542
3.783336
2.707900
2.972761
1.967641
3.702709
4.757837
3.789406
2.071542
2.538933
2.633965
2.771342
2.169329
2.004272
2.132331
2.799341
1.878021
1.817508
2.638775
3.267747
1.486274
2.378653
1.936046
2.957478
1.696408
5.612442
4.888098
1.920004
2.802225
2.151312
2.311440
2.757656
1.571500
2.476068
1.944015
1.317150
3.204142
2.003653
4.140802
3.617617
1.027304
1.596604
3.337404
2.022180
3.280845
2.047961
2.219280
2.914246
1.997323
5.809883
6.132290
3.077668
1.582863
3.257451
1.801175
2.872309
2.449163
3.499886
1.212583
1.709923
3.864393
3.554934
1.628417
3.273672
2.687918
2.292720
2.905831
4.297024
3.834580
3.253271
3.740416
1.102320
4.254731
5.193742
3.226127
3.789091
4.772754
4.279624
3.101608
2.582302
2.066981
5.120010
4.378528
3.512375
1.784956
3.979289
2.373037
5.920349
2.252749
2.282965
2.213396
2.276099
3.383934
2.297029
1.938019
2.062554
4.588703
0.920024
3.728580
5.054490
2.662042
5.116371
3.613668
3.584912
5.425878
2.082182
3.771978
5.122371
6.077620
5.819002
4.316493
1.469743
3.988030
3.971048
2.097565
4.009988
1.862975
5.201613
4.604094
1.410260
4.112710
0.411947
3.507143
4.852995
2.126645
1.118664
4.284144
6.541415
6.435340
2.541907
2.281787
0.946215
1.174920
2.190385
1.971754
1.852976
2.115848
2.170574
2.212537
2.961376
1.451337
2.197103
1.352812
3.501898
2.491086
1.666105
3.587861
2.323724
3.086985
2.526762
2.533069
2.253288
4.057260
4.087067
2.312004
2.503461
3.226601
1.641516
2.335812
4.001964
3.371409
4.228751
2.678953
3.162014
3.367728
2.272646
1.383316
1.119308
1.869925
2.296314
1.171617
1.561394
1.216673
2.544632
4.843520
2.074478
4.668327
0.850295
5.018981
2.334110
4.620272
2.277014
2.316837
2.633876
4.118717
2.012074
2.099678
2.181023
2.965784
2.271792
2.354254
2.485710
4.974432
3.514584
1.930609
2.156545
2.246658
2.374862
2.616176
4.936187
2.506860
4.184780
3.309739
2.382366
2.239667
2.531511
2.061994
3.234834
1.298176
0.999760
0.521621
2.279210
2.719765
2.182812
2.776238
2.310001
2.429576
1.966831
4.458776
2.189952
1.892755
3.202108
2.340277
4.338731
3.308765
2.433814
2.261580
5.475459
1.520972
2.405423
5.395371
1.896303
5.193225
0.824436
1.805366
3.087995
2.114528
1.588656
2.880587
2.385481
3.117241
2.562541
2.273275
4.122566
2.170746
5.392533
0.592742
5.000285
2.162488
2.066385
2.340777
1.825398
5.302667
5.321211
4.103121
2.274544
4.919980
0.299344
2.558866
2.337256
2.320422
2.341756
3.178162
2.870706
3.051629
2.119916
2.425302
2.224661
2.147554
3.527022
3.038432
5.171668
4.306449
4.060674
2.229556
1.331092
2.757988
2.427648
1.767539
2.340566
3.769482
1.277248
2.003243
0.579558
1.515923
1.705423
2.374191
3.842927
5.693653
2.566429
2.346513
2.337044
2.374599
2.259281
3.037010
2.323173
2.404251
3.904615
1.852977
2.212104
2.871225
1.770091
1.511726
3.700669
0.903470
1.210335
2.319391
2.460581
2.343952
2.478364
5.809523
3.950327
3.943999
3.849987
2.270791
2.615733
2.464730
1.279074
5.478157
2.139564
2.714559
3.288107
2.364007
3.932351
1.534864
4.692116
5.208846
2.104792
3.008765
3.687863
4.656670
2.576451
2.074780
2.010597
2.408698
2.107768
4.317936
2.667715
1.347998
2.032653
5.561331
3.867701
2.331009
2.796860
5.567404
4.449017
2.750572
3.990833
1.169031
2.285124
2.189134
3.045532
5.439243
2.320192
2.311140
2.425248
2.112392
1.703145
2.459090
4.770485
2.689460
5.811498
4.593596
5.860134
2.121100
4.664759
2.249979
2.922319
2.269438
5.015974
5.721831
4.102501
5.683056
1.645299
2.340015
2.096321
3.122973
2.562288
3.683833
4.853728
2.534024
1.439603
1.837444
0.262840
2.465311
1.734355
3.772017
1.951768
3.265042
0.997130
4.391451
2.272817
2.412914
2.328387
2.653237
2.044919
2.209791
1.998216
2.441537
1.900936
2.112041
2.001169
3.846523
3.403649
5.053426
4.719156
3.782403
3.321735
3.705123
3.550212
4.771873
2.639127
2.248443
2.219814
1.985622
0.200794
2.277097
2.526293
1.982220
3.400629
2.367123
2.607223
1.689390
5.865573
1.694794
2.046383
2.247984
3.420015
3.711359
2.272138
0.911478
1.653271
1.471978
5.821483
2.046250
2.317614
2.327729
2.342095
4.508505
2.339461
1.819974
1.618086
2.480948
0.476987
0.957002
1.985302
2.056610
4.377597
2.849413
2.252943
2.740421
2.956973
1.781323
4.726656
3.884103
2.850959
1.206130
2.840160
3.104356
2.140094
2.350144
1.544093
2.235067
2.192892
3.527996
0.722636
1.145534
2.650608
4.960590
5.135196
1.719090
2.483116
5.730316
2.169829
1.932216
1.286197
3.454495
1.364473
4.040575
1.946764
2.335643
2.325365
3.490592
2.923106
2.124804
2.968662
2.062337
2.876473
2.896061
4.000032
3.489258
2.372439
2.040486
6.109219
2.043806
2.507699
2.423632
2.162934
3.433510
2.491078
2.394740
2.401701
2.463408
4.841887
6.027256
2.386358
2.480378
4.551779
2.329035
3.395636
1.698327
3.024614
4.549039
6.055486
2.240096
2.140491
3.579639
2.250240
3.575591
3.015203
1.820076
2.493766
2.178863
2.027991
1.915769
2.181887
2.204490
2.163127
5.884575
2.320694
1.894515
1.834927
2.964748
2.888650
1.563177
1.591065
1.759392
1.306144
1.996161
1.966423
2.202212
2.368736
1.986167
2.015233
5.509867
4.097030
4.610610
4.096701
2.074693
0.273733
0.479070
1.479039
0.413701
1.721104
1.729204
3.117152
5.532411
5.619193
2.715280
1.294955
2.228968
3.595764
3.679140
3.497725
3.633257
3.583351
3.204272
2.927236
3.551339
3.142428
2.924522
1.111101
2.476160
2.430015
3.522151
2.997419
2.312938
3.838382
3.651029
2.728896
3.144530
3.182862
2.761886
1.920344
2.607947
2.931474
2.741974
2.509739
2.139433
1.710619
2.842247
2.380968
1.901719
1.829349
2.067400
1.159949
2.431525
0.607003
2.050915
1.255233
2.347179
1.569461
2.734986
2.213009
1.321417
3.239151
2.072908
2.706792
2.375106
2.739445
1.030059
2.144457
2.282082
2.156468
2.423885
2.286102
4.074244
4.186251
3.361598
4.921790
1.533871
1.844172
2.903627
1.784692
2.495388
3.296064
2.273768
1.718103
4.466932
1.820556
1.998236
2.246963
2.417839
1.311076
1.939341
1.946252
1.684587
1.811519
2.685743
1.774511
1.928379
2.335330
1.898470
1.741174
1.707456
1.400665
1.209299
1.280806
1.785764
1.901938
3.499450
3.159806
2.194665
3.065581
2.172253
2.147738
2.026717
3.052022
2.154733
2.560318
3.618497
2.617043
3.234492
1.638095
4.776637
4.720494
5.630801
3.046928
3.250427
3.754030
3.601903
3.838557
0.681322
3.113091
2.188020
1.663028
4.359924
5.031352
2.410699
0.556459
2.004567
4.695061
2.371121
0.493150
2.754311
1.958263
0.359594
1.615381
2.405536
1.870288
1.662072
1.252590
1.168292
1.685826
0.621511
1.882342
2.293150
2.239423
1.802886
1.979031
1.147535
0.322703
1.734947
3.912073
2.705390
1.260968
1.552213
4.742550
1.732961
2.467373
1.801288
1.812457
2.740768
2.729709
1.356928
4.470844
2.484245
1.833865
2.286968
2.791832
3.705292
4.067419
1.658367
4.984138
4.088531
4.920423
5.101778
3.969313
3.867765
3.787768
2.961396
2.520890
3.828194
3.769382
3.818159
2.417613
3.598441
4.088535
1.689862
1.737047
2.551199
1.817848
1.965682
1.942623
3.333934
1.974560
1.900878
1.991972
1.846780
2.336410
1.638391
1.868959
1.606229
2.175726
1.790439
2.145790
2.122498
2.717329
1.944838
2.252400
2.127500
1.760466
1.194416
1.890111
1.814698
2.614312
1.786990
1.516880
1.743173
2.439946
1.693484
3.377851
3.038963
2.462339
3.636619
3.595070
3.237499
1.667382
2.416768
1.690981
1.798235
1.634573
1.713657
2.632031
2.973449
2.888915
2.956834
2.852183
1.304989
1.772810
3.891686
2.701523
1.266543
2.003455
1.838750
2.134401
3.323877
3.764537
2.885550
4.520577
2.961915
0.938432
4.763544
3.837402
1.863346
1.975634
1.977445
1.872353
1.911612
1.637940
2.003789
1.605547
3.617850
3.879812
3.846159
3.821746
3.828894
3.873281
3.619968
1.999294
2.302552
3.283347
5.136006
1.098971
2.479528
1.125976
1.809358
1.570307
4.302735
4.423092
3.561258
5.097305
2.276645
2.587643
2.445516
2.702895
2.472249
4.610033
3.197399
2.599869
1.731582
2.305353
3.073795
1.631940
1.545589
3.275306
2.286485
4.472029
1.696388
1.724695
1.789346
2.156388
1.945432
2.456181
1.490579
2.895265
1.941373
2.006628
3.389247
2.568406
1.911715
5.687651
0.957489
2.488349
2.122726
0.374918
1.691544
2.892278
2.298895
3.785663
1.756757
2.501946
2.081134
2.150358
2.255022
1.507069
1.319999
1.625572
1.782542
3.145922
1.340364
1.327886
3.499098
2.419706
1.652457
1.667866
1.769536
2.331580
1.690405
1.732116
1.535831
1.751254
1.086892
1.114006
2.342159
2.043982
2.237099
2.435795
1.422190
1.657116
1.394542
2.247404
2.036058
2.174720
2.281638
4.084245
1.971635
2.549567
2.130028
1.964006
1.565696
0.855830
1.937986
2.054497
0.864451
1.093241
1.936372
2.029157
3.823634
2.721488
3.078090
1.747850
2.826548
0.564587
0.912473
0.931235
2.087905
1.947377
2.130495
1.854115
1.974674
2.020821
2.720705
2.128836
2.859276
1.690103
1.843344
0.930776
1.717947
1.926879
2.047729
2.006775
2.105437
1.891633
2.163847
2.120173
2.066206
3.142373
2.957831
1.869623
2.167020
2.530552
1.894295
1.681919
1.867708
1.596914
5.210085
5.121410
2.015520
2.898927
0.737389
0.757548
0.716320
0.746284
1.851905
1.969534
4.265107
4.150946
4.192090
3.002069
3.331298
1.382843
1.447587
1.568733
2.632795
3.143391
3.041734
1.922760
2.334232
1.960963
1.847195
1.438176
1.716652
1.627852
3.422382
2.267037
1.738409
3.106796
2.943763
1.932213
2.083252
2.152777
2.224201
2.039059
2.023288
2.023819
1.895279
1.674489
3.760929
2.737638
3.762136
2.238210
1.951656
2.090623
2.072666
1.993156
2.122275
2.365686
2.005596
1.877110
2.046238
1.053357
0.302196
1.282886
1.724456
3.070608
3.051188
2.908940
1.683115
1.921591
2.102997
1.948814
1.516419
1.537889
2.390702
2.720013
2.315267
1.972730
0.405232
2.594679
2.857927
3.603895
5.068975
4.882240
4.843587
2.273498
2.243752
3.359444
2.636541
2.742804
2.581087
3.085555
2.214141
2.354737
2.473178
4.049556
3.701551
1.951209
2.273299
2.463242
2.243918
2.382713
2.422564
2.625123
1.893837
2.062114
1.944902
2.283748
1.872970
2.061008
1.958557
1.933803
1.633984
2.376528
3.290784
1.595670
1.334229
1.400814
1.103658
2.005272
1.907669
2.062544
2.033318
1.316807
3.861586
2.769280
2.147345
2.208573
2.292141
4.951838
1.952816
1.174549
1.690613
2.339288
1.578363
1.996158
1.939667
1.910382
1.904215
3.112437
2.974353
2.003736
2.122213
2.472148
2.366025
2.261388
1.985567
2.163332
1.896456
4.743838
4.635602
4.352584
2.756765
0.268362
0.200157
3.501424
4.232498
4.227965
3.697538
4.176611
1.981276
2.013193
1.834187
1.254870
1.352432
1.829793
2.053511
1.127868
1.656327
1.293770
1.451519
3.125895
3.279910
3.112865
1.924728
4.086523
3.941008
1.819843
1.904787
1.950916
1.348969
1.782407
0.260857
1.122988
2.202322
1.608162
1.561774
3.214463
2.373033
4.032325
1.682829
1.579831
1.943928
1.161349
1.005902
2.150343
2.100820
2.806744
2.706154
2.279895
3.192060
3.054779
1.892913
2.116033
1.719471
3.712522
2.633390
1.290890
2.320277
2.262347
2.512586
1.717869
1.671230
1.757098
1.999212
1.906159
1.962326
3.689574
3.633377
5.300740
3.627163
1.975313
1.916914
1.928765
2.883710
3.217373
3.943060
2.532167
3.182105
1.508553
1.228232
1.869556
1.575475
1.959585
3.811355
3.914187
3.724819
1.949237
1.822118
1.800589
2.301591
2.041987
1.038350
0.943265
1.442772
1.352810
1.635496
2.013073
1.820367
2.620911
2.091233
3.040241
1.826277
1.708439
3.510182
2.035659
2.153784
2.120829
1.720638
1.924221
0.591746
2.406088
2.268142
2.035536
2.029788
1.795195
1.820435
1.747208
3.913670
2.260380
1.740023
1.906717
2.012165
1.990655
1.635609
2.200752
2.300303
2.247445
1.925324
1.254165
1.101009
1.941225
1.978657
1.831312
4.830510
4.716051
2.058341
2.058380
1.957979
1.753630
2.933073
1.320589
2.379235
3.286901
1.847206
2.110035
1.887717
1.944686
1.869685
1.524670
1.705075
2.721919
2.606514
1.877837
1.313107
1.379077
4.007638
4.835292
1.732012
3.939795
1.956370
1.966685
2.109389
2.044894
1.677606
1.725556
2.470308
1.493586
1.691842
2.216601
2.085528
2.053669
1.546850
1.573159
1.744115
1.898189
1.839395
2.646320
2.640336
4.513546
1.949888
3.630882
2.739795
2.879490
2.884629
2.707861
2.790636
2.984219
2.680050
2.670460
2.595660
2.556285
3.255093
1.049700
0.648664
1.246639
1.492942
0.673783
2.030103
1.151938
0.896650
1.039687
1.563865
1.089284
2.012210
2.334229
2.440521
3.042940
2.812902
2.956188
2.013116
2.580434
1.960783
1.866683
2.429036
1.775999
2.819273
2.938431
2.424407
2.637747
1.967266
1.774163
2.560667
2.698024
2.510164
2.519972
2.793000
2.111138
2.737638
2.241624
2.396095
1.987316
1.684376
2.531317
1.098600
1.571572
2.072053
1.165438
1.677263
2.992664
2.741991
2.457988
2.583159
0.996525
2.735598
2.593632
2.156193
2.044641
2.090643
2.352972
1.780323
1.572419
1.574301
1.961042
1.688037
2.165661
1.381771
1.003006
1.377903
0.959736
1.812727
1.953046
1.726723
1.741064
1.999105
1.888662
1.751314
1.676045
2.339089
2.226133
1.817119
2.357262
1.556510
1.448746
2.826286
2.066410
