# vtk DataFile Version 2.0
Unstructured Grid Example
ASCII
DATASET UNSTRUCTURED_GRID
POINTS 5000 float
0.000000 0.000000 0.000000 
0.056513 0.000000 0.021893 
0.057610 -0.060606 0.035671 
-0.089320 -0.000000 0.016922 
0.040571 0.060606 -0.054271 
0.049515 -0.101010 0.045139 
-0.104972 -0.060606 0.000255 
0.087931 -0.020202 -0.080946 
-0.010159 0.020202 0.119084 
-0.064072 0.060606 -0.083151 
0.066006 0.101010 0.011510 
0.041830 -0.134680 0.055392 
-0.111060 -0.101010 -0.020481 
0.115050 -0.067340 -0.072012 
-0.039390 -0.033670 0.142378 
-0.068852 -0.000000 -0.134968 
0.138390 0.033670 0.051687 
-0.125834 0.067340 0.050872 
0.048611 0.101010 -0.101935 
0.020290 0.134680 0.066381 
0.030080 -0.168831 0.060408 
-0.104974 -0.142857 -0.040374 
0.129619 -0.116883 -0.050941 
-0.069156 -0.090909 0.141460 
-0.048062 -0.064935 -0.162885 
0.152119 -0.038961 0.091649 
-0.177761 -0.012987 0.035920 
0.106811 0.012987 -0.146562 
0.019822 0.038961 0.176485 
-0.127977 0.064935 -0.111639 
0.157413 0.090909 -0.003828 
-0.100376 0.116883 0.096544 
0.007106 0.142857 -0.112246 
0.042349 0.168831 0.052540 
0.018584 -0.200957 0.065317 
-0.097411 -0.178628 -0.059987 
0.140836 -0.156300 -0.027036 
-0.098149 -0.133971 0.131961 
-0.018388 -0.111643 -0.179425 
0.143752 -0.089314 0.127882 
-0.201245 -0.066986 0.002936 
0.150847 -0.044657 -0.142290 
-0.015375 -0.022329 0.210382 
-0.131505 -0.000000 -0.166439 
0.208232 0.022329 0.033709 
-0.173325 0.044657 0.113840 
0.049409 0.066986 -0.195108 
0.091160 0.089314 0.169435 
-0.170305 0.111643 -0.059394 
0.151086 0.133971 -0.064961 
-0.058882 0.156300 0.130762 
-0.035827 0.178628 -0.108645 
0.059247 0.200957 0.033190 
0.006263 -0.232727 0.067589 
-0.085282 -0.213333 -0.077366 
0.145453 -0.193939 -0.000707 
-0.123498 -0.174545 0.114244 
0.015383 -0.155152 -0.185636 
0.122976 -0.135758 0.158796 
-0.209598 -0.116364 -0.036025 
0.186888 -0.096970 -0.120163 
-0.058546 -0.077576 0.222090 
-0.109484 -0.058182 -0.208321 
0.225177 -0.038788 0.080996 
-0.222915 -0.019394 0.093287 
0.101682 -0.000000 -0.220069 
0.073441 0.019394 0.230217 
-0.207627 0.038788 -0.118979 
0.229601 0.058182 -0.051649 
-0.131179 0.077576 0.188530 
-0.029624 0.096970 -0.220202 
0.163283 0.116364 0.136263 
-0.200632 0.135758 0.009274 
0.131395 0.155152 -0.132033 
-0.006954 0.174545 0.168092 
-0.093736 0.193939 -0.111223 
0.114190 0.213333 0.014799 
-0.055530 0.232727 0.039038 
-0.006242 -0.264205 0.067358 
-0.069703 -0.247159 -0.091837 
0.144019 -0.230114 0.026198 
-0.144085 -0.213068 0.090674 
0.050116 -0.196023 -0.182876 
0.093958 -0.178977 0.183082 
-0.205765 -0.161932 -0.076281 
0.214004 -0.144886 -0.087122 
-0.103168 -0.127841 0.217700 
-0.073427 -0.110795 -0.238145 
0.220960 -0.093750 0.129490 
-0.255884 -0.076705 0.054953 
0.154111 -0.059659 -0.216958 
0.033319 -0.042614 0.267309 
-0.206769 -0.025568 -0.175992 
0.272413 -0.008523 -0.009939 
-0.194155 0.008523 0.191341 
0.013861 0.025568 -0.271172 
0.171585 0.042614 0.207660 
-0.263570 0.059659 -0.036769 
0.215558 0.076705 -0.148429 
-0.057425 0.093750 0.249587 
-0.122849 0.110795 -0.216824 
0.229153 0.127841 0.074336 
-0.210222 0.144886 0.095890 
0.085704 0.161932 -0.202022 
0.068706 0.178977 0.193976 
-0.167418 0.196023 -0.089032 
0.164827 0.213068 -0.042592 
-0.079767 0.230114 0.122740 
-0.018975 0.247159 -0.113721 
0.053281 0.264205 0.041680 
-0.018659 -0.295260 0.065579 
-0.052204 -0.279720 -0.104205 
0.138681 -0.264180 0.052951 
-0.161063 -0.248640 0.063751 
0.084618 -0.233100 -0.174159 
0.060188 -0.217560 0.202169 
-0.193749 -0.202020 -0.116089 
0.234009 -0.186480 -0.047879 
-0.146876 -0.170940 0.202569 
-0.029665 -0.155400 -0.258453 
0.203007 -0.139860 0.176223 
-0.276256 -0.124320 0.007390 
0.203369 -0.108780 -0.196559 
-0.017518 -0.093240 0.287796 
-0.184363 -0.077700 -0.227597 
0.293330 -0.062160 0.043832 
-0.248252 -0.046620 0.167407 
0.070441 -0.031080 -0.293086 
0.146617 -0.015540 0.264744 
-0.287321 -0.000000 -0.096303 
0.276548 0.015540 -0.122910 
-0.120415 0.031080 0.276336 
-0.097220 0.046620 -0.283200 
0.260495 0.062160 0.141796 
-0.284284 0.077700 0.070518 
0.159460 0.093240 -0.240221 
0.043834 0.108780 0.279415 
-0.216001 0.124320 -0.172382 
0.268202 0.139860 -0.018285 
-0.179429 0.155400 0.188370 
0.004870 0.170940 -0.250166 
0.157887 0.186480 0.179233 
-0.224574 0.202020 -0.024122 
0.169867 0.217560 -0.125060 
-0.037431 0.233100 0.189975 
-0.090110 0.248640 -0.147938 
0.142579 0.264180 0.041320 
-0.104458 0.279720 0.051695 
0.024631 0.295260 -0.063577 
-0.030170 -0.326389 0.060590 
-0.032015 -0.312500 -0.111490 
0.126320 -0.298611 0.077367 
-0.170145 -0.284722 0.033092 
0.115591 -0.270833 -0.156202 
0.022161 -0.256944 0.211186 
-0.170801 -0.243056 -0.151203 
0.242026 -0.229167 -0.004119 
-0.184703 -0.215278 0.175076 
0.018716 -0.201389 -0.264959 
0.171383 -0.187500 0.215830 
-0.281006 -0.173611 -0.044789 
0.244153 -0.159722 -0.161211 
-0.072877 -0.145833 0.290745 
-0.145689 -0.131944 -0.269214 
0.294590 -0.118056 0.101936 
-0.290586 -0.104167 0.125779 
0.131036 -0.090278 -0.292900 
0.102361 -0.076389 0.307893 
-0.286042 -0.062500 -0.159327 
0.320827 -0.048611 -0.076279 
-0.186024 -0.034722 0.274409 
-0.048361 -0.020833 -0.329148 
0.258446 -0.006944 0.210401 
-0.332694 0.006944 0.019434 
0.231787 0.020833 -0.238646 
-0.009676 0.034722 0.331379 
-0.215565 0.048611 -0.249560 
0.325193 0.062500 0.038132 
-0.263146 0.076389 0.189816 
0.065089 0.090278 -0.314205 
0.162079 0.104167 0.272012 
-0.298550 0.118056 -0.089677 
0.275657 0.131944 -0.133099 
-0.110996 0.145833 0.278431 
-0.103693 0.159722 -0.273583 
0.254099 0.173611 0.128077 
-0.265262 0.187500 0.074772 
0.139834 0.201389 -0.225832 
0.047367 0.215278 0.250046 
-0.193874 0.229167 -0.144937 
0.226980 0.243056 -0.022700 
-0.141526 0.256944 0.158307 
-0.002359 0.270833 -0.194306 
0.118628 0.284722 0.126380 
-0.147709 0.298611 -0.011158 
0.091190 0.312500 -0.071688 
-0.010980 0.326389 0.066790 
-0.040868 -0.357257 0.054118 
-0.011023 -0.344498 -0.115893 
0.110549 -0.331738 0.099799 
-0.174591 -0.318979 0.001273 
0.143638 -0.306220 -0.133524 
-0.017213 -0.293461 0.214046 
-0.141985 -0.280702 -0.182423 
0.242390 -0.267943 0.041054 
-0.217565 -0.255183 0.140636 
0.068452 -0.242424 -0.262252 
0.131766 -0.229665 0.249245 
-0.274875 -0.216906 -0.098118 
0.277313 -0.204147 -0.116845 
-0.129006 -0.191388 0.280998 
-0.096996 -0.178628 -0.301521 
0.281161 -0.165869 0.160211 
-0.321613 -0.153110 0.073169 
0.190926 -0.140351 -0.275827 
0.046222 -0.127592 0.337365 
-0.265441 -0.114833 -0.220423 
0.348604 -0.102073 -0.016964 
-0.248040 -0.089314 0.250460 
0.013830 -0.076555 -0.355217 
0.231370 -0.063796 0.273184 
-0.357162 -0.051037 -0.045406 
0.295321 -0.038278 -0.208690 
-0.077031 -0.025518 0.354466 
-0.182977 -0.012759 -0.313988 
0.347231 -0.000000 0.107992 
-0.328782 0.012759 0.154825 
0.137596 0.025518 -0.335630 
0.124868 0.038278 0.339373 
-0.319914 0.051037 -0.165171 
0.345497 0.063796 -0.093772 
-0.190075 0.076555 0.300404 
-0.062237 0.089314 -0.346960 
0.277492 0.102073 0.211686 
-0.343634 0.114833 0.030994 
0.229409 0.127592 -0.251641 
0.000810 0.140351 0.335458 
-0.223385 0.153110 -0.242669 
0.322431 0.165869 0.027513 
-0.250898 0.178628 0.193323 
0.053121 0.191388 -0.304599 
0.162127 0.204147 0.253516 
-0.282037 0.216906 -0.075088 
0.249885 0.229665 -0.130548 
-0.092362 0.242424 0.254816 
-0.099425 0.255183 -0.239223 
0.222918 0.267943 0.103661 
-0.220403 0.280702 0.069717 
0.107222 0.293461 -0.186053 
0.042572 0.306220 0.191437 
-0.143072 0.318979 -0.100070 
0.147651 0.331738 -0.019496 
-0.074809 0.344498 0.089199 
-0.002966 0.357257 -0.067751 
-0.050111 -0.388060 0.045682 
0.010473 -0.376300 -0.116089 
0.090567 -0.364541 0.118725 
-0.172555 -0.352782 -0.030955 
0.166655 -0.341022 -0.105444 
-0.056653 -0.329263 0.208722 
-0.106978 -0.317503 -0.207209 
0.233131 -0.305744 0.085782 
-0.242628 -0.293985 0.099464 
0.117095 -0.282225 -0.248648 
0.085056 -0.270466 0.273499 
-0.256678 -0.258706 -0.149585 
0.299929 -0.246947 -0.065175 
-0.182386 -0.235188 0.258090 
-0.040913 -0.223428 -0.321860 
0.253527 -0.211669 0.214729 
-0.339190 -0.199910 0.013201 
0.245921 -0.188150 -0.243537 
-0.017126 -0.176391 0.351826 
-0.228634 -0.164631 -0.275338 
0.359707 -0.152872 0.049289 
-0.302420 -0.141113 0.209327 
0.082551 -0.129353 -0.362824 
0.186136 -0.117594 0.326670 
-0.361224 -0.105834 -0.116209 
0.347657 -0.094075 -0.159602 
-0.149591 -0.082316 0.355014 
-0.130287 -0.070556 -0.365014 
0.344363 -0.058797 0.182058 
-0.378444 -0.047038 0.098773 
0.213003 -0.035278 -0.329505 
0.065663 -0.023519 0.387716 
-0.310732 -0.011759 -0.241859 
0.392672 -0.000000 -0.031571 
-0.268099 0.011759 0.288397 
0.002874 0.023519 -0.393226 
0.262911 0.035278 0.291241 
-0.389363 0.047038 -0.037041 
0.310853 0.058797 -0.234737 
-0.070295 0.070556 0.381141 
-0.204389 0.082316 -0.326554 
0.368690 0.094075 0.102007 
-0.338018 0.105834 0.172428 
0.131553 0.117594 -0.352213 
0.139458 0.129353 0.344975 
-0.331979 0.141113 -0.158321 
0.347211 0.152872 -0.106125 
-0.181707 0.164631 0.308330 
-0.073117 0.176391 -0.344570 
0.281672 0.188150 0.201119 
-0.336942 0.199910 0.041161 
0.215963 0.211669 -0.252476 
0.011036 0.223428 0.324263 
-0.221278 0.235188 -0.225635 
0.306490 0.246947 0.016418 
-0.229482 0.258706 0.188672 
0.040267 0.270466 -0.283575 
0.155317 0.282225 0.226746 
-0.255402 0.293985 -0.059422 
0.216431 0.305744 -0.121927 
-0.072498 0.317503 0.221639 
-0.089273 0.329263 -0.196989 
0.181360 0.341022 0.077463 
-0.165393 0.352782 0.058127 
0.070435 0.364541 -0.131670 
0.028885 0.376300 0.112925 
-0.056765 0.388060 -0.037089 
-0.057573 -0.418803 0.035647 
0.031616 -0.407925 -0.112156 
0.067265 -0.397047 0.133456 
-0.164252 -0.386169 -0.062258 
0.183770 -0.375291 -0.073256 
-0.094453 -0.364413 0.195610 
-0.067460 -0.353535 -0.224597 
0.214879 -0.342657 0.128041 
-0.258898 -0.331779 0.053627 
0.162344 -0.320901 -0.225052 
0.033723 -0.310023 0.287628 
-0.227650 -0.299145 -0.196645 
0.311129 -0.288267 -0.009079 
-0.230265 -0.277389 0.223640 
[...]
POINT_DATA 5000
SCALARS u float 1
LOOKUP_TABLE default
0.036524
0.072395
0.092475
0.094547
0.099803
0.120061
0.120598
0.129195
0.119544
0.125941
0.140048
0.174300
0.168566
0.168385
0.163731
0.164746
0.180110
0.180016
0.193462
0.177161
0.238878
0.218547
0.222823
0.221586
0.218529
0.231488
0.231124
0.235853
0.231358
0.233464
0.243134
0.250557
0.249228
0.240737
0.311750
0.282043
0.294157
0.292946
0.290857
0.293689
0.300672
0.301519
0.298483
0.288236
0.303808
0.302422
0.311146
0.308153
0.307553
0.316768
0.317410
0.318012
0.313034
0.391239
0.357126
0.379318
0.371147
0.380137
0.369491
0.376865
0.377954
0.375641
0.363392
0.378000
0.377267
0.380129
0.379884
0.377716
0.385763
0.381894
0.390401
0.386742
0.390925
0.392206
0.395212
0.401020
0.393166
0.388109
0.478186
0.439360
0.467199
0.453583
0.469025
0.455227
0.453760
0.469072
0.464659
0.446968
0.455134
0.467057
0.464128
0.470934
0.467307
0.467250
0.465703
0.468269
0.463989
0.473764
0.484310
0.480840
0.481202
0.477498
0.479064
0.483499
0.478002
0.482890
0.489148
0.482865
0.485899
0.485471
0.568865
0.523760
0.561349
0.541651
0.562655
0.547063
0.549689
0.557787
0.557589
0.547651
0.542711
0.552528
0.557761
0.559718
0.550140
0.550697
0.544194
0.551737
0.553708
0.550308
0.563340
0.564236
0.562207
0.564578
0.569120
0.578397
0.581206
0.579775
0.581483
0.572903
0.574175
0.567957
0.573283
0.578030
0.569271
0.586429
0.572101
0.568819
0.576748
0.660717
0.613018
0.657456
0.633218
0.659178
0.642757
0.649461
0.652609
0.651121
0.640105
0.641322
0.638820
0.638437
0.645989
0.641574
0.647597
0.641550
0.641097
0.644095
0.636517
0.639515
0.642457
0.642259
0.640840
0.639031
0.650313
0.673460
0.661827
0.662522
0.668481
0.677028
0.659017
0.672126
0.682820
0.668495
0.670225
0.670354
0.673642
0.682875
0.659855
0.669706
0.680316
0.679761
0.680506
0.673305
0.670779
0.680607
0.663761
0.749071
0.700325
0.753471
0.728985
0.756230
0.735418
0.729342
0.744126
0.736184
0.720358
0.741090
0.736133
0.742946
0.730199
0.735715
0.742822
0.729821
0.738123
0.741658
0.734366
0.736940
0.729281
0.723931
0.731244
0.727731
0.733088
0.747325
0.735532
0.739138
0.737921
0.745096
0.741433
0.741683
0.754583
0.753145
0.762854
0.765029
0.763132
0.778386
0.764307
0.759791
0.750574
0.753331
0.761182
0.751432
0.754560
0.777922
0.764624
0.782156
0.776820
0.775489
0.780174
0.764536
0.779056
0.762953
0.752363
0.765582
0.830139
0.781493
0.839341
0.818500
0.845358
0.814590
0.816898
0.828155
0.817067
0.802494
0.832277
0.827758
0.837286
0.824684
0.802474
0.822017
0.800320
0.818746
0.827336
0.823804
0.824134
0.819289
0.818626
0.827317
0.820022
0.822339
0.821203
0.810114
0.815432
0.816864
0.817176
0.840031
0.822439
0.825105
0.818997
0.818642
0.821262
0.824309
0.824083
0.805842
0.813823
0.819363
0.824894
0.834202
0.831401
0.851125
0.861180
0.849875
0.848698
0.841230
0.844894
0.857274
0.844667
0.852671
0.857080
0.844038
0.853669
0.852486
0.858909
0.854427
0.850669
0.865856
0.860081
0.849693
0.871025
0.862286
0.858738
0.896526
0.846282
0.915046
0.891891
0.924338
0.885943
0.889270
0.892935
0.885635
0.867646
0.912978
0.913601
0.920636
0.902445
0.887004
0.894460
0.887959
0.883784
0.891782
0.893716
0.894320
0.891515
0.905861
0.891743
0.886622
0.890013
0.898870
0.886098
0.895860
0.888679
0.881934
0.899419
0.873570
0.889135
0.886479
0.918914
0.904651
0.901206
0.899606
0.895147
0.887900
0.888588
0.887902
0.891669
0.866548
0.878517
0.875189
0.882488
0.884162
0.882328
0.873381
0.886452
0.893421
0.900802
0.887099
0.906866
0.929226
0.921381
0.930238
0.930337
0.902055
0.924421
0.919077
0.921025
0.922532
0.915554
0.925128
0.917477
0.905054
0.916153
0.919808
0.944895
0.949577
0.945796
0.938458
0.934982
0.911774
0.916038
0.944519
0.894710
0.960988
0.947565
0.976852
0.939535
0.949780
0.945897
0.940647
0.924751
0.957581
0.972561
0.994080
0.959853
0.948984
0.948903
0.943750
0.935088
0.945412
0.941394
0.946358
0.937575
0.941855
0.940370
0.919598
0.941913
0.941708
0.954461
0.946783
0.956760
0.942440
0.939254
0.938424
0.941545
0.934473
0.932028
0.945223
0.943170
0.937380
0.940698
0.935232
0.971973
0.970646
0.959796
0.952779
0.940948
0.944245
0.943004
0.917638
0.944959
0.931690
0.921164
0.917414
0.910702
0.919669
0.922603
0.926441
0.917464
0.919860
0.933159
0.954145
0.967046
0.942405
0.955930
0.958329
0.953568
0.957201
0.955775
0.951353
0.945637
0.959076
0.962346
0.960200
0.951334
0.961592
0.958125
0.962680
0.968095
0.956059
0.968114
0.973904
0.955293
0.966830
0.949298
0.947481
0.948270
0.940416
0.952769
0.954586
0.966008
0.918179
0.991672
0.980143
1.000982
0.961633
0.986950
0.971914
0.970324
0.958212
0.979470
0.986675
0.997745
0.996016
0.976202
0.980734
0.973231
0.963425
0.976160
0.969621
0.975428
0.967782
0.971875
0.974637
0.954087
0.966552
0.962751
0.945346
0.973701
0.970898
0.968310
0.973782
0.968411
0.969027
0.962364
0.962127
0.957815
0.965542
0.959188
0.962767
0.962634
0.963491
0.965287
0.961655
0.935825
0.965912
0.966584
0.965591
0.982026
0.988356
0.987310
0.976870
0.962358
0.954535
0.939853
0.938429
0.944439
0.949439
0.942314
0.946419
0.945389
0.927803
0.945203
0.934383
0.950985
0.949649
0.959296
0.968377
0.976724
0.983691
0.978231
0.972722
0.982648
0.976076
0.987810
0.978735
0.977952
0.972475
0.970155
0.979180
0.982144
0.977270
0.975585
0.981733
0.977563
0.991768
0.985056
0.994249
0.989106
0.985191
0.986707
0.971506
0.983641
0.988302
0.989930
0.987762
0.973495
0.957932
0.962883
0.964373
0.960632
0.956172
0.954506
0.912979
0.981185
0.975073
1.005168
0.953022
0.987724
0.958065
0.977328
0.943821
0.968244
0.980858
0.981337
0.987655
0.952050
0.981584
0.961711
0.959489
0.974878
0.970207
0.977773
0.968105
0.958244
0.973156
0.969866
0.971708
0.955443
0.955353
0.966000
0.960800
0.961625
0.969668
0.967675
0.965381
0.965691
0.961617
0.960678
0.953387
0.959277
0.958847
0.959952
0.952950
0.952248
0.953388
0.953707
0.949298
0.947712
0.944302
0.949479
0.928296
0.945923
0.940714
0.949479
0.949593
0.945129
0.944819
0.943603
0.961367
0.940566
0.948463
0.951791
0.936369
0.945345
0.947997
0.973510
0.952839
0.942967
0.945516
0.944296
0.945848
0.940380
0.929934
0.947640
0.956942
0.930588
0.957714
0.951672
0.966159
0.971698
0.960575
0.958060
0.950074
0.958446
0.962895
0.962795
0.972030
0.960347
0.969504
0.966219
0.959464
0.961913
0.961430
0.973253
0.981204
0.969842
0.971741
0.976990
0.982789
0.994717
0.978247
0.972631
0.976811
0.973229
0.971218
0.963442
0.967639
0.971514
0.967043
0.974283
0.968501
0.956608
0.966183
0.970494
0.961691
0.942141
0.904826
0.880539
0.930174
0.926659
0.961653
0.905947
0.954523
0.930575
0.927912
0.889716
0.931489
0.939236
0.932836
0.937460
0.920980
0.921792
0.893757
0.901495
0.936263
0.934414
0.926254
0.926013
0.919165
0.930517
0.929439
0.930197
0.922473
0.921410
0.914416
0.919807
0.920898
0.928857
0.926740
0.929923
0.926924
0.922957
0.926677
0.921438
0.923860
0.918989
0.910997
0.913317
0.912085
0.913567
0.919865
0.915901
0.906545
0.903740
0.899580
0.895958
0.894621
0.906665
0.911594
0.879701
0.896555
0.896855
0.906847
0.906036
0.895134
0.887046
0.884136
0.882848
0.902069
0.891189
0.883617
0.886298
0.889584
0.883695
0.882383
0.873286
0.895765
0.875710
0.884870
0.890045
0.878521
0.892525
0.899301
0.896465
0.895137
0.893918
0.899651
0.897275
0.898177
0.900038
0.882197
0.901280
0.885398
0.902744
0.910780
0.903581
0.906809
0.913725
0.907444
0.901695
0.905694
0.914763
0.922100
0.913866
0.914040
0.904969
0.912090
0.910708
0.903775
0.900666
0.906365
0.910346
0.920296
0.913650
0.911515
0.917535
0.904599
0.916177
0.902467
0.919050
0.922295
0.917429
0.914689
0.913266
0.916216
0.927392
0.915497
0.921533
0.927390
0.907942
0.915865
0.915382
0.917710
0.910782
0.954511
0.813847
0.802559
0.836665
0.838803
0.868879
0.823136
0.871361
0.856188
0.832407
0.808968
0.845156
0.852573
0.858461
0.848289
0.830025
0.833602
0.831556
0.819363
0.847912
0.844438
0.845708
0.836953
0.832661
0.843850
0.841724
0.842690
0.838597
0.836248
0.835643
0.852789
0.834898
0.843056
0.841907
0.846704
0.844254
0.841669
0.848859
0.846171
0.843867
0.841497
0.838146
0.837048
0.837989
0.837240
0.842782
0.839855
0.836419
0.832379
0.829796
0.830775
0.828495
0.833881
0.827850
0.811849
0.811323
0.811625
0.821230
0.829373
0.824399
0.802795
0.800677
0.792696
0.789910
0.785002
0.780793
0.789597
0.808197
0.796573
0.798204
0.803524
0.808237
0.811718
0.820378
0.817266
0.808882
0.820488
0.816308
0.812751
0.821522
0.835570
0.825454
0.824186
0.807563
0.827598
0.812079
0.806658
0.796605
0.793888
0.804734
0.806812
0.805586
0.806894
0.806716
0.798052
0.794977
0.795653
0.803302
0.795761
0.810486
0.782967
0.808582
0.813836
0.818208
0.820254
0.828611
0.824424
0.816539
0.818103
0.821506
0.822299
0.821422
0.823994
0.816171
0.822232
0.823049
0.817130
0.815595
0.825229
0.819662
0.827837
0.822470
0.828660
0.828001
0.826068
0.828824
0.820910
0.836536
0.842164
0.838162
0.829877
0.827518
0.823082
0.835728
0.824832
0.826009
0.833764
0.836779
0.837599
0.837808
0.835088
0.841354
0.849414
0.817871
0.822565
0.679041
0.688184
0.701494
0.706555
0.729165
0.695287
0.760126
0.738481
0.702612
0.689624
0.723497
0.734427
0.726091
0.713149
0.714294
0.707013
0.699128
0.691261
0.693666
0.716288
0.727511
0.706907
0.698232
0.709183
0.707809
0.708579
0.703239
0.700191
0.707743
0.707731
0.699340
0.696706
0.713480
0.714496
0.714603
0.713252
0.721214
0.720611
0.718942
0.715865
0.713592
0.712164
0.714541
0.712632
0.716292
0.712216
0.713222
0.711640
0.710898
0.715967
0.713252
0.707312
0.713003
0.708764
0.705797
0.706602
0.703369
0.710037
0.703555
0.694827
0.693351
0.691896
0.691955
0.690070
0.674084
0.666208
0.636357
0.637379
0.637658
0.657957
0.673215
0.667891
0.696708
0.694878
0.700339
0.704254
0.697245
0.694179
0.681346
0.690193
0.684351
0.685537
0.676846
0.681526
0.679335
0.688470
0.683559
0.680009
0.689873
0.692819
0.677926
0.681445
0.698168
0.668687
0.667758
0.669365
0.679041
0.667127
0.666954
0.663868
0.667238
0.668952
0.668900
0.656699
0.661224
0.662440
0.663151
0.674156
0.675891
0.679300
0.686267
0.695526
0.669928
0.681685
0.684451
0.680489
0.683033
0.692711
0.688250
0.683315
0.682468
0.689142
0.691888
0.692367
0.694453
0.689288
0.701159
0.703054
0.707794
0.713663
0.703600
0.690760
0.698103
0.692479
0.704777
0.699716
0.699437
0.702757
0.700281
0.705351
0.705247
0.706611
0.698269
0.695031
0.697044
0.703332
0.695199
0.700458
0.698832
0.712441
0.704726
0.708609
0.708805
0.710535
0.714305
0.695407
0.697688
0.677318
0.673534
0.501814
0.534660
0.523034
0.531756
0.546761
0.546179
0.594894
0.553293
0.538628
0.529619
0.554618
0.559003
0.551848
0.534734
0.535486
0.526096
0.524538
0.520965
0.513925
0.541909
0.546869
0.534000
0.518663
0.531313
0.532052
0.530546
0.520595
0.519704
0.527369
0.527661
0.524530
0.520852
0.524377
0.525925
0.537408
0.536546
0.546217
0.548729
0.547228
0.543883
0.543432
0.547258
0.546239
0.539757
0.542207
0.539648
0.541580
0.541117
0.540030
0.546477
0.545405
0.542236
0.538372
0.535939
0.534055
0.534185
0.539357
0.539897
0.530366
0.531780
0.531303
0.532318
0.536847
0.534814
0.522316
0.515510
0.512355
0.507433
0.506697
0.508259
0.518099
0.510885
0.504753
0.504669
0.503136
0.504115
0.501473
0.510742
0.497538
0.511506
0.504123
0.505577
0.502557
0.525644
0.525147
0.520031
0.517844
0.518763
0.519404
0.512110
0.512345
0.501277
0.502245
0.503455
0.504946
0.504494
0.509748
0.505801
0.505670
0.496246
0.494992
0.479020
0.483371
0.486954
0.483846
0.491013
0.473944
0.474256
0.475590
0.481919
0.471237
0.473251
0.489581
0.485641
0.483693
0.482327
0.486940
0.502741
0.504882
0.500199
0.496188
0.500315
0.500725
0.504737
0.510815
0.483715
0.502838
0.507088
0.508376
0.510555
0.516611
0.518820
0.513452
0.508006
0.517412
0.502997
0.502497
0.504266
0.500197
0.509150
0.513316
0.519525
0.527901
0.518113
0.504897
0.510966
0.503978
0.515820
0.514512
0.518138
0.522375
0.521425
0.523979
0.519654
0.519628
0.523162
0.518772
0.527518
0.533662
0.531024
0.538239
0.540759
0.537180
0.532566
0.541182
0.550797
0.549649
0.546807
0.543617
0.535916
0.528560
0.525411
0.484043
0.517556
0.500244
0.288407
0.344933
0.306468
0.318326
0.326995
0.356155
0.401526
0.345381
0.332929
0.333482
0.345451
0.345154
0.335269
0.317250
0.313739
0.309799
0.315441
0.317078
0.308917
0.320625
0.331153
0.321700
0.314416
0.291154
0.318147
0.314410
0.299361
0.302197
0.310479
0.303439
0.301979
0.295659
0.301409
0.310349
0.308841
0.321440
0.325537
0.331435
0.330519
0.330622
0.330248
0.336197
0.332289
0.327682
0.328458
0.325333
0.326331
0.328287
0.328248
0.336066
0.335778
0.334845
0.331355
0.331029
0.336255
0.335065
0.326373
0.329474
0.323291
0.322678
0.322814
0.323013
0.329572
0.328211
0.324820
0.317378
0.315703
0.314263
0.311563
0.308548
0.308511
0.301996
0.303870
0.306536
0.308001
0.312676
0.312064
0.317358
0.312219
0.304859
0.296792
0.295449
0.299063
0.316207
0.306688
0.310005
0.308514
0.310487
0.312042
0.307849
0.315315
0.328305
0.336796
0.330517
0.333192
0.324280
0.311943
0.310337
0.300366
0.298511
0.298782
0.296611
0.290025
0.292293
0.276888
0.292990
0.292819
0.292743
0.284567
0.265233
0.267015
0.271978
0.250679
0.247876
0.263016
0.267556
0.275144
0.265999
0.278299
0.260363
0.257492
0.258521
0.263733
0.249090
0.251295
0.275275
0.275395
0.281058
0.279526
0.282957
0.298126
0.294699
0.286956
0.286388
0.292087
0.294556
0.289153
0.297161
0.265107
0.296125
0.301553
0.304551
0.306357
0.315090
0.319262
0.311154
0.306386
0.314081
0.295133
0.293498
0.297363
0.293370
0.293577
0.296284
0.306506
0.313642
0.308761
0.304008
0.303231
0.294776
0.308632
0.308912
0.318689
0.322518
0.322650
0.322230
0.319664
0.319510
0.329081
0.323906
0.328470
0.334123
0.332948
0.322059
0.323059
0.321718
0.318299
0.328035
0.340850
0.339344
0.333161
0.330743
0.334887
0.341174
0.326341
0.333596
0.346265
0.323674
0.324200
0.301739
0.295780
0.314623
0.291778
0.048968
0.126772
0.064468
0.078340
0.118507
0.137547
0.174104
0.109531
0.095832
0.107879
0.098791
0.102793
0.087984
0.068610
0.065311
0.061131
0.082902
0.082588
0.067038
0.060757
0.085711
0.079165
0.074781
0.063811
0.078316
0.058918
0.061814
0.062336
0.056415
0.050288
0.059813
0.053896
0.046188
0.055827
0.051978
0.050354
0.083301
0.076977
0.079701
0.082107
0.080352
0.087253
0.092475
0.088827
0.086486
0.088641
0.081897
0.081975
0.085757
0.092648
0.092909
0.094938
0.092946
0.092628
0.098180
0.094847
0.088825
0.090877
0.077339
0.083403
0.082313
0.079283
0.087286
0.085297
0.085116
0.083057
0.081982
0.090964
0.092052
0.076020
0.078092
0.071310
0.073697
0.075702
0.075967
0.078695
0.076230
0.074678
0.082806
0.081175
0.076896
0.069465
0.073793
0.072523
0.062925
0.053229
0.062179
0.064060
0.066226
0.067116
0.073999
0.070204
0.064026
0.044653
0.048118
0.048098
0.079970
0.075486
0.074215
0.067890
0.067195
0.057269
0.052450
0.059021
0.066939
0.068816
0.075901
0.081823
0.080060
0.072256
0.068527
0.050534
0.053191
0.055123
0.050416
0.048342
0.046479
0.032426
0.049085
0.047484
0.043403
0.032063
0.020414
0.023457
0.027046
0.026267
0.019957
0.012491
0.020702
0.034548
0.020467
0.038253
0.023761
0.024995
0.026389
0.030947
0.015426
0.031413
0.052416
0.045226
0.051148
0.046464
0.047818
0.065141
0.061486
0.056544
0.058825
0.073327
0.068928
0.063079
0.059703
0.028711
0.064843
0.064360
0.066821
0.068401
0.077458
0.080405
0.064819
0.062906
0.074362
0.064704
0.068423
0.064819
0.058443
0.058046
0.066384
0.074330
0.079845
0.075195
0.071845
0.070362
0.062633
0.072346
0.069444
0.081745
0.084415
0.085315
0.087190
0.085823
0.085145
0.090195
0.081929
0.081640
0.097166
0.095907
0.092593
0.090550
0.090066
0.088150
0.086556
0.096719
0.104673
0.095866
0.102764
0.104145
0.090304
0.088916
0.104171
0.111999
0.105866
0.101209
0.101434
0.082864
0.077077
0.079470
0.069235
0.070130
0.016262
0.089892
0.038838
-0.200891
-0.105976
-0.187971
-0.172683
-0.106513
-0.095401
-0.078066
-0.139715
-0.158414
-0.127009
-0.162058
-0.147061
-0.175909
-0.189849
-0.193286
-0.200743
-0.170503
-0.173461
-0.186516
-0.192160
-0.172541
-0.180375
-0.182954
-0.191253
-0.181869
-0.180852
-0.187078
-0.189726
-0.193400
-0.184205
-0.189772
-0.223331
-0.226874
-0.217397
-0.205645
-0.208441
-0.224451
-0.219499
-0.193847
-0.207363
-0.195633
-0.176270
-0.159479
-0.172206
-0.176998
-0.169039
-0.161813
-0.172075
-0.174353
-0.162722
-0.171882
-0.165728
-0.165382
-0.168551
-0.165210
-0.160120
-0.164261
-0.164255
-0.162752
-0.187953
-0.180495
-0.174778
-0.165813
-0.165204
-0.164379
-0.169756
-0.169136
-0.162387
-0.160531
-0.173191
-0.174259
-0.168838
-0.168998
-0.167495
-0.167360
-0.178748
-0.186601
-0.185973
-0.186233
-0.188288
-0.176818
-0.176462
-0.180935
-0.179285
-0.195705
-0.194698
-0.189754
-0.188961
-0.181163
-0.181599
-0.180751
-0.175745
-0.175313
-0.179023
-0.197876
-0.186621
-0.201334
-0.218164
-0.220758
-0.203379
-0.203699
-0.195124
-0.194274
-0.187506
-0.158825
-0.165784
-0.203063
-0.199316
-0.208340
-0.155162
-0.153843
-0.162487
-0.166019
-0.164676
-0.177316
-0.181910
-0.181604
-0.184485
-0.185958
-0.177095
-0.170402
-0.169321
-0.182697
-0.181882
-0.199515
-0.198937
-0.199368
-0.201570
-0.206675
-0.177393
-0.185412
-0.203336
-0.200358
-0.213428
-0.228287
-0.236849
-0.230863
-0.229457
-0.230944
-0.241356
-0.241710
-0.228218
-0.197937
-0.219614
-0.202676
-0.215038
-0.214765
-0.215360
-0.211110
-0.231121
-0.191509
-0.169450
-0.182419
-0.176249
-0.181187
-0.186478
-0.177325
-0.182100
-0.189646
-0.181721
-0.171066
-0.177731
-0.182846
-0.202478
-0.253102
-0.189224
-0.185456
-0.168566
-0.166967
-0.158524
-0.156412
-0.173996
-0.177350
-0.178636
-0.178405
-0.179296
-0.180942
-0.184624
-0.188649
-0.177524
-0.168270
-0.159254
-0.166860
-0.167529
-0.164914
-0.176938
-0.165692
-0.167017
-0.155007
-0.152608
-0.153791
-0.153374
-0.154386
-0.158613
-0.153713
-0.166524
-0.167628
-0.149087
-0.152459
-0.152480
-0.149960
-0.152644
-0.158386
-0.159944
-0.141736
-0.157021
-0.172982
-0.152509
-0.153827
-0.158787
-0.154806
-0.129856
-0.129418
-0.131683
-0.135662
-0.135531
-0.138188
-0.136376
-0.138510
-0.141301
-0.144565
-0.155506
-0.175291
-0.170896
-0.197682
-0.161744
-0.172599
-0.142467
-0.166741
-0.440940
-0.343166
-0.430344
-0.414967
-0.333107
-0.332332
-0.336977
-0.384277
-0.406884
-0.388737
-0.418406
-0.409846
-0.433763
-0.443723
-0.447427
-0.452694
-0.421602
-0.426556
-0.437897
-0.434666
-0.425275
-0.427682
-0.431420
-0.439447
-0.439706
-0.437003
-0.442765
-0.445917
-0.453103
-0.439593
-0.442664
-0.448795
-0.452115
-0.442015
-0.487528
-0.491883
-0.505522
-0.500080
-0.461652
-0.464555
-0.458192
-0.440111
-0.438635
-0.449102
-0.426268
-0.424988
-0.419519
-0.440646
-0.444165
-0.432381
-0.439011
-0.427875
-0.434226
-0.424514
-0.414977
-0.414479
-0.414274
-0.422530
-0.416565
-0.400522
-0.421121
-0.429535
-0.424905
-0.428699
-0.418411
-0.419561
-0.424027
-0.426609
-0.415724
-0.413636
-0.411534
-0.405981
-0.401683
-0.393979
-0.405312
-0.428839
-0.420053
-0.419175
-0.431756
-0.431438
-0.419022
-0.418430
-0.443885
-0.444325
-0.436687
-0.429375
-0.426411
-0.428046
-0.426371
-0.444509
-0.440621
-0.438122
-0.442146
-0.446336
-0.445779
-0.448138
-0.442810
-0.446556
-0.449695
-0.455110
-0.454327
-0.444181
-0.442549
-0.442548
-0.436270
-0.432664
-0.433822
-0.471179
-0.450661
-0.427723
-0.437442
-0.443143
-0.408731
-0.407996
-0.412124
-0.414207
-0.402402
-0.365060
-0.375200
-0.356087
-0.353265
-0.354644
-0.377143
-0.388860
-0.400224
-0.405253
-0.399784
-0.418177
-0.422620
-0.422191
-0.424995
-0.426384
-0.415850
-0.407803
-0.406865
-0.408416
-0.407856
-0.423763
-0.421973
-0.419581
-0.407920
-0.412817
-0.405867
-0.407287
-0.427567
-0.422073
-0.447521
-0.469847
-0.475245
-0.462238
-0.464149
-0.458504
-0.457147
-0.454474
-0.471306
-0.439352
-0.409543
-0.430892
-0.435063
-0.424106
-0.418380
-0.424961
-0.477770
-0.411364
-0.393785
-0.415498
-0.410310
-0.415273
-0.423785
-0.424910
-0.430463
-0.435481
-0.424032
-0.409622
-0.402041
-0.405167
-0.403507
-0.466545
-0.449856
-0.422845
-0.401107
-0.402469
-0.391681
-0.385475
-0.412786
-0.414913
-0.410950
-0.409532
-0.417227
-0.417451
-0.419167
-0.412761
-0.401769
-0.398840
-0.389496
-0.400686
-0.408329
-0.386699
-0.381472
-0.402126
-0.405579
-0.381408
-0.378317
-0.376590
-0.375848
-0.376974
-0.387293
-0.380156
-0.398378
-0.394938
-0.368491
-0.369374
-0.375009
-0.372543
-0.377427
-0.368578
-0.369602
-0.362809
-0.381691
-0.414494
-0.381830