# vtk DataFile Version 2.0
Unstructured Grid Example
ASCII
DATASET UNSTRUCTURED_GRID
POINTS 1689 float
0.005698 -0.005155 -0.000913 
1.006460 0.004961 0.002805 
0.994360 1.004052 -0.003213 
-0.005613 0.994522 0.000100 
-0.005875 0.005387 0.099131 
0.993708 -0.004848 0.102758 
1.006598 0.995132 0.096816 
0.005318 1.005252 0.100055 
-0.005551 0.054958 0.093594 
-0.005389 0.103871 0.088699 
-0.004763 0.151385 0.086361 
-0.003926 0.198795 0.087879 
-0.003529 0.247288 0.091737 
-0.002652 0.297033 0.097180 
-0.001665 0.348263 0.102233 
-0.000867 0.400314 0.104331 
-0.000588 0.451979 0.102894 
-0.000250 0.502506 0.099377 
0.000309 0.551680 0.096007 
0.001230 0.599644 0.095557 
0.001801 0.647826 0.098417 
0.002925 0.696542 0.103856 
0.003949 0.747224 0.109639 
0.004551 0.799470 0.113500 
0.004904 0.851721 0.113886 
0.005039 0.903575 0.110860 
0.005090 0.954764 0.105734 
0.005732 0.045340 -0.006567 
0.005539 0.096544 -0.011449 
0.005294 0.149002 -0.014003 
0.004330 0.201385 -0.012486 
0.003720 0.252734 -0.008517 
0.002960 0.303070 -0.002777 
0.001779 0.351806 0.002180 
0.000858 0.399620 0.004331 
0.000490 0.447974 0.002969 
0.000120 0.497274 -0.000640 
-0.000274 0.548177 -0.003955 
-0.001052 0.600144 -0.004547 
-0.001837 0.652087 -0.001529 
-0.002994 0.703325 0.004114 
-0.004019 0.752861 0.010181 
-0.004690 0.800554 0.013447 
-0.005219 0.848338 0.014232 
-0.005162 0.896159 0.011033 
-0.005496 0.944863 0.005806 
-0.000202 0.000200 0.049121 
0.000020 0.999959 0.050079 
0.044582 0.005186 0.105250 
0.095891 0.005196 0.110958 
0.148345 0.005124 0.114117 
0.200994 0.004517 0.113084 
0.253007 0.003849 0.108855 
0.303188 0.002832 0.103124 
0.351818 0.002101 0.097758 
0.399531 0.001461 0.095924 
0.447468 0.001186 0.097852 
0.496888 0.001099 0.102120 
0.547851 0.000666 0.106198 
0.600116 0.000051 0.107351 
0.652291 -0.000838 0.104401 
0.703640 -0.001834 0.098137 
0.753324 -0.003153 0.091845 
0.800877 -0.004161 0.086937 
0.847832 -0.004695 0.085718 
0.895650 -0.004581 0.089723 
0.944216 -0.004634 0.095962 
0.055231 -0.005250 0.005408 
0.103695 -0.005433 0.011319 
0.151315 -0.005501 0.014499 
0.198557 -0.004767 0.013596 
0.246899 -0.004009 0.009082 
0.296708 -0.003076 0.003087 
0.348046 -0.002107 -0.002200 
0.400385 -0.001372 -0.004161 
0.452412 -0.001069 -0.002217 
0.503105 -0.000930 0.002155 
0.552095 -0.000774 0.006266 
0.599937 -0.000250 0.007548 
0.647690 0.000728 0.004359 
0.696334 0.002063 -0.001722 
0.746683 0.003396 -0.008958 
0.798617 0.004499 -0.013758 
0.852005 0.004850 -0.014347 
0.904447 0.004930 -0.010400 
0.956089 0.004967 -0.004112 
0.999982 -0.000057 0.052746 
0.994019 0.045617 0.107761 
0.994176 0.096951 0.112091 
0.994591 0.149464 0.113937 
0.995542 0.201480 0.111709 
0.996576 0.252616 0.107510 
0.997878 0.302805 0.101988 
0.998962 0.351555 0.096668 
0.999677 0.399489 0.094764 
0.999904 0.447767 0.096499 
1.000107 0.497200 0.100126 
1.000284 0.548072 0.103834 
1.000931 0.600223 0.104931 
1.001186 0.651828 0.102835 
1.002190 0.702861 0.098049 
1.003345 0.752834 0.092294 
1.004492 0.801070 0.088040 
1.004940 0.848922 0.086552 
1.005341 0.897041 0.088347 
1.005976 0.945673 0.092240 
1.006396 0.054436 0.007933 
1.006279 0.102957 0.012441 
1.005750 0.150901 0.014111 
1.004583 0.198499 0.012063 
1.003631 0.247166 0.007690 
1.002394 0.296909 0.001927 
1.001043 0.348189 -0.003457 
1.000274 0.400444 -0.005621 
0.999987 0.452043 -0.003705 
1.000080 0.502629 0.000189 
1.000004 0.551842 0.003824 
0.999595 0.600091 0.005061 
0.998765 0.648268 0.002933 
0.997348 0.697150 -0.002204 
0.996126 0.747332 -0.008038 
0.994871 0.798873 -0.012616 
0.994281 0.850658 -0.013772 
0.994103 0.902421 -0.011939 
0.994062 0.953564 -0.007915 
1.000632 0.999465 0.046820 
0.956070 0.995602 0.103387 
0.904530 0.995656 0.109744 
0.852202 0.995602 0.113900 
0.799111 0.996008 0.113105 
0.746635 0.996988 0.108498 
0.696108 0.998335 0.101568 
0.647501 0.999487 0.094918 
0.600113 1.000359 0.092136 
0.552574 1.000751 0.093628 
0.503345 1.000947 0.098179 
0.452423 1.001090 0.102639 
0.400346 1.001549 0.104365 
0.348291 1.001864 0.102710 
0.296656 1.002922 0.097528 
0.247340 1.003744 0.091218 
0.199518 1.004221 0.087178 
0.151382 1.004984 0.085938 
0.103634 1.004803 0.089016 
0.054947 1.005011 0.094389 
0.944818 1.004610 0.003538 
0.896108 1.004950 0.010017 
0.848412 1.005098 0.013984 
0.801123 1.004695 0.013906 
0.753236 1.003570 0.008945 
0.703742 1.002183 0.001662 
0.652507 1.000383 -0.005271 
0.599863 0.999284 -0.008227 
0.547629 0.998818 -0.006374 
0.496748 0.998830 -0.001918 
0.447661 0.998968 0.002630 
0.399736 0.998897 0.004520 
0.351882 0.998271 0.002699 
0.303355 0.997186 -0.002793 
0.253073 0.996076 -0.008943 
0.201379 0.995355 -0.013555 
0.148664 0.994786 -0.014281 
0.096232 0.994739 -0.011332 
0.044845 0.994595 -0.005761 
0.674524 0.999874 0.047555 
0.575039 0.999690 0.040528 
0.774742 0.999975 0.063357 
0.475394 0.999999 0.050708 
0.875555 1.000140 0.063175 
0.374806 1.000315 0.055697 
0.274725 1.000281 0.044072 
0.174987 1.000171 0.035562 
0.071977 1.000049 0.041653 
0.930166 1.000024 0.055817 
0.425357 1.000174 0.056488 
0.525188 0.999887 0.043343 
0.825427 0.999898 0.067042 
0.724472 0.999822 0.057275 
0.624780 0.999800 0.040179 
0.224717 1.000057 0.036129 
0.324639 1.000331 0.052866 
0.124637 1.000452 0.038796 
0.034540 1.001583 0.061294 
0.970726 0.998360 0.066286 
0.968390 1.001379 0.032510 
0.028999 0.997977 0.027566 
0.500543 0.500311 0.100003 
0.294367 0.293246 0.100633 
0.704692 0.706201 0.099109 
0.711658 0.292184 0.100975 
0.287968 0.707283 0.098999 
0.502822 0.782282 0.101382 
0.781193 0.496186 0.099843 
0.496919 0.217776 0.098720 
0.222548 0.509242 0.099378 
0.167842 0.170763 0.100276 
0.830897 0.168926 0.098563 
0.831127 0.831044 0.101266 
0.169554 0.830605 0.099339 
0.565716 0.641839 0.098376 
0.434651 0.355850 0.099244 
0.646330 0.433244 0.099537 
0.353294 0.567427 0.098519 
0.638367 0.846659 0.092655 
0.361244 0.153905 0.091077 
0.150578 0.359887 0.108272 
0.846806 0.361105 0.093129 
0.847265 0.641893 0.106861 
0.641545 0.153220 0.107409 
0.358176 0.847075 0.109144 
0.154125 0.634080 0.091451 
0.676938 0.579917 0.100626 
0.323330 0.420926 0.103330 
0.560189 0.330502 0.101869 
0.439516 0.668900 0.101910 
0.536952 0.883235 0.097010 
0.462538 0.118291 0.095894 
0.883001 0.463558 0.097205 
0.119208 0.467877 0.103329 
0.742096 0.894269 0.100790 
0.106653 0.255096 0.100613 
0.261687 0.100506 0.100068 
0.893908 0.257240 0.099581 
0.890405 0.738403 0.101190 
0.739243 0.109673 0.100233 
0.260950 0.891020 0.100865 
0.113909 0.736919 0.099423 
0.601518 0.742437 0.095318 
0.401921 0.254452 0.093915 
0.741256 0.394152 0.096767 
0.258283 0.605046 0.094063 
0.602291 0.524633 0.099477 
0.397888 0.475848 0.100778 
0.611689 0.254682 0.105378 
0.387477 0.744679 0.105853 
0.094078 0.097581 0.100075 
0.898254 0.091242 0.099435 
0.909677 0.899595 0.099691 
0.102067 0.909354 0.099600 
0.439089 0.904402 0.106235 
0.904537 0.561657 0.105415 
0.561144 0.096755 0.105922 
0.097220 0.564353 0.093912 
0.261019 0.201049 0.097447 
0.739487 0.797976 0.098331 
0.798693 0.258650 0.097784 
0.207288 0.745223 0.097270 
0.196774 0.276266 0.104169 
0.797854 0.716991 0.103413 
0.715631 0.206297 0.103697 
0.284183 0.793059 0.103763 
0.502875 0.411374 0.100350 
0.497455 0.588602 0.099592 
0.242838 0.365695 0.106927 
0.757980 0.633479 0.104153 
0.694688 0.497420 0.099691 
0.306370 0.503142 0.100322 
0.642148 0.343629 0.101670 
0.357449 0.656692 0.099996 
0.078256 0.183442 0.094324 
0.178866 0.088332 0.105508 
0.817225 0.915572 0.106561 
0.915090 0.183373 0.104677 
0.919677 0.820700 0.095693 
0.820517 0.080277 0.093479 
0.085028 0.817363 0.105796 
0.184515 0.916697 0.094546 
0.649994 0.655727 0.098401 
0.516915 0.698841 0.099714 
0.351957 0.341856 0.100349 
0.484055 0.302955 0.098816 
0.609097 0.917670 0.092309 
0.390745 0.084198 0.092522 
0.076555 0.395366 0.106735 
0.917061 0.390980 0.093511 
0.926669 0.662327 0.104956 
0.662813 0.073582 0.105671 
0.337213 0.927371 0.105652 
0.077321 0.659967 0.095401 
0.433127 0.821247 0.107390 
0.821511 0.563641 0.104720 
0.566550 0.178883 0.105284 
0.178847 0.568912 0.093358 
0.190904 0.433429 0.106424 
0.575387 0.819336 0.094742 
0.424191 0.181270 0.092232 
0.819436 0.425974 0.094933 
0.565880 0.458010 0.100100 
0.433962 0.542459 0.099880 
0.664939 0.781735 0.094542 
0.775933 0.332851 0.095962 
0.223027 0.666716 0.093017 
0.335945 0.218095 0.093213 
0.674082 0.929405 0.095932 
0.066431 0.315074 0.103250 
0.325362 0.071696 0.096139 
0.929140 0.325106 0.096312 
0.745530 0.558417 0.102754 
0.448878 0.736052 0.104282 
0.550615 0.263513 0.102587 
0.613827 0.594098 0.099133 
0.385949 0.406598 0.101126 
0.258485 0.445357 0.104550 
0.586516 0.394753 0.100928 
0.413171 0.605508 0.100050 
0.450929 0.427072 0.100443 
0.549393 0.572998 0.099188 
0.488182 0.936226 0.101241 
0.935519 0.512207 0.101432 
0.511835 0.065544 0.102140 
0.064862 0.516982 0.098298 
0.503382 0.839040 0.101191 
0.836427 0.504295 0.100858 
0.496495 0.161783 0.098982 
0.153366 0.503358 0.099737 
0.694019 0.842218 0.095271 
0.306227 0.157919 0.093882 
0.842171 0.304990 0.095251 
0.151571 0.699786 0.094643 
0.159061 0.227995 0.100952 
0.842766 0.774893 0.101055 
0.775734 0.157290 0.099839 
0.224746 0.842869 0.100151 
0.670302 0.238832 0.105079 
0.329232 0.760556 0.104915 
0.708460 0.360313 0.098529 
0.291284 0.639489 0.095830 
0.941398 0.607540 0.106098 
0.607411 0.059508 0.107470 
0.392815 0.941771 0.106747 
0.061289 0.606946 0.093874 
0.741986 0.463843 0.098237 
0.264398 0.535993 0.097578 
0.049023 0.058603 0.099584 
0.940573 0.050005 0.100833 
0.951181 0.942302 0.098738 
0.058296 0.951082 0.100061 
0.770497 0.942495 0.106695 
0.053091 0.230956 0.094507 
0.229571 0.058719 0.106254 
0.947369 0.773154 0.095152 
0.773313 0.052895 0.093376 
0.226849 0.946905 0.093757 
0.941954 0.229349 0.105265 
0.059060 0.769966 0.106561 
0.222144 0.160374 0.099441 
0.774281 0.846636 0.100857 
0.846567 0.225061 0.098899 
0.156766 0.774258 0.099245 
0.553880 0.948512 0.094396 
[...]
POINT_DATA 1689
SCALARS u float 1
LOOKUP_TABLE default
0.077465
0.086241
0.076604
0.078528
0.080275
0.084178
0.088062
0.074830
0.098313
0.131197
0.145297
0.128120
0.093959
0.048829
0.032868
0.044334
0.035586
0.025974
0.043480
0.046295
0.032406
0.059547
0.107926
0.142723
0.148439
0.125087
0.090372
0.098960
0.131951
0.150207
0.133028
0.096982
0.050951
0.033469
0.044365
0.036314
0.028060
0.043686
0.046745
0.031760
0.060853
0.113258
0.142686
0.152671
0.127866
0.095132
0.009245
0.000913
0.091651
0.128196
0.151260
0.138937
0.101241
0.052920
0.035745
0.043600
0.035299
0.039272
0.066011
0.073605
0.050372
0.044871
0.093646
0.137530
0.152066
0.120772
0.084493
0.091851
0.131022
0.155811
0.144955
0.104122
0.054676
0.036230
0.044030
0.034499
0.038967
0.066593
0.075607
0.049922
0.045501
0.101493
0.145574
0.152947
0.123528
0.088786
0.027494
0.107466
0.137783
0.149769
0.126300
0.086679
0.040451
0.038254
0.052764
0.041578
0.028083
0.043061
0.050289
0.035799
0.041023
0.088755
0.128346
0.143832
0.131710
0.107200
0.111265
0.142620
0.152819
0.130064
0.089743
0.043639
0.040439
0.056511
0.042353
0.026397
0.042496
0.050843
0.036273
0.044791
0.093239
0.136811
0.149441
0.135501
0.105294
0.032897
0.082344
0.116034
0.147614
0.137443
0.096348
0.045193
0.056931
0.078820
0.069205
0.039290
0.037493
0.046502
0.037112
0.050878
0.099214
0.135231
0.149999
0.125414
0.090136
0.077950
0.118446
0.149860
0.147368
0.101719
0.046454
0.058559
0.082689
0.069106
0.039574
0.036720
0.046657
0.037209
0.051993
0.102493
0.144116
0.152791
0.130647
0.094436
0.024970
0.080984
0.119849
0.008112
0.124958
0.043291
0.059480
0.144555
0.083365
0.063561
0.042739
0.044299
0.147486
0.050736
0.075982
0.118046
0.007977
0.133081
0.043282
0.031013
0.022553
0.045159
0.002079
0.025686
0.020138
0.019982
0.025723
0.026637
0.017695
0.027437
0.028236
0.011427
0.018737
0.017080
0.014994
0.017007
0.011644
0.007524
0.018010
0.073594
0.089598
0.083488
0.068842
0.068752
0.074261
0.091808
0.085903
0.010958
0.034736
0.020105
0.021997
0.039693
0.049525
0.035783
0.041729
0.029917
0.029542
0.033952
0.027796
0.025251
0.028362
0.032365
0.029346
0.047873
0.062545
0.034840
0.060791
0.005502
0.008714
0.054659
0.060512
0.048027
0.051103
0.048177
0.049588
0.065792
0.056033
0.061381
0.063114
0.031738
0.021919
0.024359
0.030998
0.045416
0.036405
0.040526
0.042668
0.003728
0.005242
0.070554
0.043627
0.009866
0.012942
0.019967
0.014440
0.065413
0.065285
0.072270
0.058546
0.053693
0.072944
0.068421
0.064627
0.019421
0.014029
0.018418
0.016903
0.077003
0.076758
0.068288
0.065257
0.053228
0.060763
0.062932
0.052441
0.075380
0.048937
0.055849
0.069195
0.066373
0.055111
0.079029
0.052362
0.003013
0.003068
0.055716
0.042814
0.070984
0.069631
0.049933
0.043426
0.049927
0.044015
0.029883
0.045301
0.031154
0.009588
0.013233
0.048227
0.011053
0.005512
0.004990
0.008780
0.031816
0.028082
0.035664
0.029759
0.030920
0.021827
0.030339
0.028882
0.050481
0.064456
0.049139
0.058481
0.018438
0.015519
0.016899
0.014366
0.052297
0.053071
0.020823
0.044626
0.062017
0.074837
0.069209
0.063174
0.021629
0.030953
0.068014
0.067903
0.065046
0.062893
0.075667
0.065411
0.073667
0.060559
0.074878
0.074308
0.065597
0.075449
0.016265
0.018402
0.017920
0.019727
0.060070
0.044066
0.045607
0.046328
0.061664
0.052685
0.053512
0.061617
0.039446
0.044005
0.005487
0.008154
0.075374
0.027044
0.031693
0.040626
0.017942
0.030636
0.032677
0.088583
0.093275
0.088510
0.091728
0.098286
0.087613
0.090036
0.094256
0.005991
0.019491
0.082642
0.034462
0.030971
0.015729
0.035496
0.068370
0.084655
0.062986
0.024022
0.017547
0.017870
0.021432
0.050323
0.031956
0.083859
0.066998
0.055803
0.034770
0.034030
0.043435
0.039966
0.034053
0.039795
0.029398
0.038282
0.083240
0.069337
0.005262
0.009269
0.007652
0.008541
0.008511
0.009051
0.037401
0.031316
0.086863
0.070570
0.077411
0.077979
0.062529
0.003462
0.003214
0.073825
0.055210
0.065070
0.072720
0.029197
0.062271
0.072495
0.058097
0.049658
0.049417
0.063995
0.050775
0.021193
0.037469
0.025478
0.033293
0.027102
0.031400
0.031463
0.067605
0.065848
0.048447
0.002819
0.001783
0.081994
0.042457
0.042301
0.042369
0.036416
0.060367
0.035275
0.022794
0.031860
0.007933
0.010349
0.048261
0.013787
0.023278
0.069491
0.053305
0.056877
0.053147
0.053316
0.014962
0.027289
0.038986
0.043975
0.032092
0.042436
0.029940
0.040868
0.036689
0.024009
0.044078
0.105391
0.112598
0.105705
0.113427
0.102971
0.115832
0.113410
0.109337
0.068688
0.021278
0.020883
0.040778
0.014024
0.032372
0.024621
0.004183
0.003763
0.019625
0.010114
0.013497
0.014422
0.030590
0.067111
0.004231
0.009774
0.023544
0.025568
0.016124
0.019967
0.017990
0.009498
0.023361
0.041274
0.035495
0.045307
0.036078
0.069908
0.047519
0.061960
0.075894
0.065487
0.043930
0.032089
0.042491
0.038554
0.058444
0.037422
0.076530
0.054282
0.059000
0.058232
0.061707
0.045832
0.045397
0.054216
0.086666
0.063812
0.070319
0.081041
0.043484
0.036329
0.036720
0.063448
0.006346
0.001993
0.027089
0.044276
0.037821
0.045226
0.076096
0.085928
0.068505
0.027653
0.029372
0.041224
0.023678
0.062155
0.056723
0.079524
0.042170
0.042954
0.050052
0.052869
0.085321
0.082190
0.088022
0.073122
0.077487
0.082238
0.078078
0.078985
0.060633
0.015256
0.059686
0.065093
0.020687
0.017527
0.023725
0.029714
0.004756
0.007145
0.041858
0.051889
0.031933
0.039338
0.021125
0.030776
0.063517
0.053840
0.031888
0.038549
0.007294
0.012235
0.003281
0.003366
0.061234
0.053695
0.044643
0.037539
0.039278
0.035722
0.069136
0.062687
0.010640
0.090017
0.030431
0.043776
0.029921
0.030769
0.063905
0.071271
0.045299
0.045573
0.041212
0.059493
0.026283
0.079828
0.010033
0.008014
0.018692
0.016127
0.020272
0.017398
0.012111
0.026295
0.039708
0.032571
0.034225
0.034144
0.031398
0.037978
0.005217
0.018912
0.035815
0.026573
0.030940
0.040544
0.038972
0.046934
0.039343
0.033185
0.048989
0.065102
0.046298
0.055060
0.072028
0.074387
0.075550
0.067380
0.025248
0.043617
0.013423
0.036014
0.021707
0.046313
0.026914
0.043717
0.013472
0.009517
0.077957
0.069573
0.059553
0.072278
0.055578
0.061879
0.049690
0.065969
0.032933
0.029635
0.006218
0.006557
0.032132
0.038990
0.036257
0.031531
0.031699
0.136065
0.100269
0.049506
0.019619
0.051843
0.010818
0.051064
0.106571
0.132185
0.097655
0.022907
0.013922
0.100302
0.138921
0.051140
0.135933
0.048502
0.045194
0.065462
0.067974
0.064622
0.065640
0.147351
0.081086
0.060842
0.038860
0.045082
0.051764
0.066816
0.071496
0.151016
0.004163
0.075653
0.118167
0.133940
0.002343
0.116786
0.017534
0.129154
0.040697
0.029751
0.040494
0.038538
0.032913
0.003184
0.030742
0.023097
0.024312
0.030872
0.030987
0.021221
0.032148
0.033053
0.012891
0.018799
0.018945
0.014506
0.018265
0.013405
0.008304
0.017823
0.074802
0.091819
0.084880
0.069291
0.070028
0.075886
0.089631
0.087213
0.012529
0.036704
0.021385
0.023079
0.043763
0.052994
0.038421
0.046091
0.037572
0.033955
0.038088
0.031431
0.031323
0.033199
0.035682
0.034317
0.049353
0.063307
0.037036
0.061702
0.005901
0.009348
0.055651
0.062762
0.051854
0.055218
0.053885
0.052835
0.067484
0.056514
0.063785
0.064145
0.035318
0.024701
0.026074
0.034483
0.044683
0.037596
0.042283
0.045267
0.003618
0.005928
0.072398
0.045440
0.010783
0.014749
0.021775
0.017514
0.068226
0.065097
0.076846
0.060383
0.059450
0.075745
0.068777
0.064715
0.021278
0.017285
0.022196
0.017367
0.077674
0.077448
0.068317
0.065486
0.055056
0.060717
0.066285
0.053829
0.077826
0.050564
0.057749
0.068496
0.067824
0.056923
0.080281
0.053798
0.003961
0.002599
0.057284
0.044135
0.072943
0.070364
0.053599
0.046460
0.052582
0.046604
0.031283
0.047029
0.032742
0.010967
0.014242
0.049962
0.011572
0.005946
0.005649
0.009306
0.037150
0.032059
0.039998
0.034548
0.036788
0.025522
0.036305
0.035899
0.052554
0.067183
0.051569
0.060028
0.021164
0.017833
0.021101
0.016121
0.054463
0.055509
0.022416
0.046124
0.062588
0.075564
0.069384
0.063893
0.021829
0.031755
0.069690
0.072455
0.067295
0.067748
0.082412
0.069436
0.076140
0.067628
0.076854
0.076103
0.068727
0.077137
0.017516
0.023425
0.019238
0.022291
0.062891
0.045263
0.048126
0.049741
0.064186
0.054182
0.054988
0.063950
0.040684
0.045832
0.006936
0.009854
0.076536
0.030643
0.035503
0.041910
0.021673
0.033189
0.033707
0.089665
0.095221
0.091613
0.095005
0.098286
0.093367
0.091873
0.097024
0.004965
0.020408
0.086186
0.035310
0.033497
0.017140
0.036479
0.070128
0.086647
0.064302
0.028925
0.020198
0.021177
0.027172
0.053292
0.034075
0.085618
0.067971
0.057731
0.039639
0.040859
0.047916
0.046340
0.035115
0.041995
0.034542
0.039433
0.085792
0.070609
0.004077
0.010599
0.009468
0.008918
0.009795
0.011658
0.039272
0.034945
0.084969
0.070737
0.078931
0.079407
0.063142
0.004310
0.004256
0.074405
0.057052
0.066983
0.074723
0.031847
0.064190
0.073962
0.060358
0.050910
0.050274
0.065659
0.052460
0.025328
0.039265
0.027080
0.040408
0.031538
0.037206
0.038093
0.069907
0.067857
0.050188
0.003495
0.002463
0.083212
0.049099
0.046671
0.049159
0.041293
0.057251
0.038443
0.025072
0.032520
0.008598
0.010641
0.052352
0.014709
0.024219
0.070194
0.052649
0.057571
0.054792
0.056332
0.014716
0.029354
0.042786
0.049227
0.036705
0.043958
0.035172
0.044480
0.038639
0.026902
0.047823
0.107325
0.113717
0.105161
0.116517
0.106004
0.117163
0.115067
0.107799
0.070516
0.023227
0.023169
0.041706
0.016962
0.033701
0.027911
0.005011
0.004229
0.020282
0.011790
0.015367
0.015508
0.033192
0.069295
0.005453
0.010632
0.026462
0.027801
0.018060
0.023505
0.019766
0.011357
0.024213
0.043780
0.038764
0.043915
0.037682
0.070431
0.049405
0.063306
0.077551
0.066431
0.051040
0.034486
0.044446
0.042159
0.061602
0.039451
0.077347
0.055681
0.060014
0.056794
0.065213
0.047969
0.048655
0.056749
0.089301
0.065195
0.071258
0.081412
0.047807
0.040455
0.038311
0.064981
0.007183
0.001866
0.035019
0.048209
0.038078
0.047731
0.077063
0.086385
0.068591
0.028978
0.031930
0.044690
0.028227
0.064311
0.057485
0.081234
0.046252
0.046308
0.054410
0.056277
0.086627
0.084613
0.091302
0.077621
0.082375
0.086581
0.082131
0.084112
0.063609
0.016983
0.062589
0.067300
0.023324
0.020948
0.027214
0.033839
0.005762
0.006873
0.045919
0.055412
0.035987
0.043255
0.025657
0.033466
0.066022
0.054747
0.033100
0.040139
0.008432
0.012872
0.003985
0.004068
0.062384
0.054681
0.047596
0.038378
0.042162
0.039408
0.070311
0.064116
0.013204
0.091659
0.031764
0.046256
0.033720
0.034363
0.064651
0.073303
0.046612
0.048081
0.042270
0.061931
0.028988
0.081948
0.010938
0.008648
0.019903
0.018823
0.022657
0.021823
0.014951
0.027804
0.041960
0.034691
0.036534
0.037334
0.031994
0.038521
0.005893
0.019988
0.037155
0.030874
0.034009
0.042980
0.042954
0.048832
0.042857
0.038438
0.048386
0.065374
0.047854
0.054621
0.074235
0.080570
0.073135
0.074931
0.028751
0.045162
0.016372
0.037282
0.024568
0.048691
0.028276
0.044350
0.014579
0.010816
0.078715
0.069691
0.061503
0.072856
0.057922
0.064312
0.054522
0.068629
0.036162
0.034168
0.006637
0.007256
0.037289
0.043197
0.040090
0.034591
0.036279
0.107157
0.088964
0.002302
0.013433
0.072709
0.036055
0.145571
0.082893
0.139365
0.041893
0.027269
0.058476
0.125620
0.008396
0.130967
0.048348
0.041642
0.133099
0.043766
0.052188
0.050933
0.045053
0.050355
0.022117
0.102560
0.046038
0.062307
0.026352
0.052121
0.065891
0.021815
0.012841
0.091084
0.084219
0.042226
0.064368
0.058444
0.094542
0.041811
0.073650
0.068519
0.055292
0.010620
0.028172
0.095064
0.028482
0.041312
0.079777
0.069571
0.028437
0.035939
0.060214
0.091768
0.042009
0.027147
0.057231
0.070622
0.037630
0.009783
0.013065
0.088422
0.069837
0.043183
0.073675
0.086317
0.086212
0.037784
0.023839
0.012195
0.013929
0.053722
0.064718
0.054108
0.064264
0.023088
0.046182
0.061169
0.029778
0.034657
0.028200
0.084463
0.018616
0.028350
0.019366
0.021702
0.081721
0.062953
0.018574
0.054204
0.009821
0.003821
0.006326
0.036302
0.006698
0.011228
0.019250
0.058483
0.019644
0.041907
0.044330
0.034990
0.048231
0.057765
0.069767
0.062487
0.067320
0.014739
0.009025
0.029040
0.007497
0.073598
0.090508
0.003798
0.001696
0.019778
0.019075
0.056659
0.068216
0.024675
0.017788
0.042124
0.012776
0.065568
0.021457
0.016950
0.011111
0.055751
0.004748
0.011583
0.014123
0.030138
0.009188
0.053540
0.001095
0.001311
0.000740
0.046044
0.054323
0.048382
0.045826
0.022588
0.007162
0.021917
0.010919
0.007908
0.017905
0.069927
0.011280
0.042532
0.032191
0.068864
0.073978
0.090489
0.052446
0.046741
0.037734
0.012622
0.028410
0.064688
0.026738
0.067523
0.068242
0.026412
0.056127
0.051188
0.068405
0.008142
0.037920
0.083685
0.027400
0.017578
0.013450
0.004740
0.007006
0.008051
0.081469
0.015111
0.003154
0.047302
0.010855
0.034135
0.059827
0.002944
0.061671
0.004306
0.008168
0.009784
0.012754
0.054236
0.068990
0.004285
0.017097
0.013389
0.015358
0.032231
0.044167
0.018642
0.047882
0.062119
0.042731
0.034968
0.007988
0.030013
0.053890
0.028538
0.037226
0.006724
0.003680
0.038387
0.001745
0.003891
0.051277
0.053332
0.047744
0.007756
0.001165
0.062213
0.072570
0.089244
0.066421
0.003786
0.014929
0.016383
0.019844
0.055628
0.027687
0.061762
0.033231
0.044905
0.011458
0.074811
0.035833
0.013346
0.020674
0.013260
0.065359
0.056291
0.053970
0.031287
0.018259
0.009144
0.023757
0.007333
0.042049
0.041513
0.007651
0.014116
0.012491
0.046622
0.049194
0.018152
0.073296
0.028785
0.082022
0.084600
0.060888
0.094462
0.065179
0.037847
0.015876
0.031679
0.037222
0.029451
0.019576
0.076647
0.009145
0.002914
0.004734
0.006261
0.002249
0.031515
0.027530
0.050608
0.033169
0.044258
0.047299
0.071602
0.048498
0.074389
0.071504
0.078881
0.069747
0.043320
0.005287
0.004641
0.002539
0.072882
0.059913
0.055906
0.010874
0.049060
0.074865
0.057116
0.031495
0.039401
0.078480
0.069740
0.051377
0.084753
0.059534
0.012202
0.026293
0.027599
0.034856
0.016274
0.030705
0.047651
0.007397
0.006839
0.018931
0.080400
0.025653
0.013975
0.007600
0.009051
0.031320
0.008022
0.012529
0.005219
0.066275
0.010607
0.084888
0.040737
0.039304
0.074569
0.059728
0.090591
0.025852
0.081710
0.078704
0.024142
0.076667
0.051639
0.002145
0.020184
0.034593
0.035146
0.058138
0.001836
0.027575
0.039284
0.088086
0.008989
0.040237
0.013368
0.008138
0.019213
0.012172
0.011557
0.001938
0.013595
0.051146
0.011283
0.082815
0.013202
0.020180
0.043684
0.026363
0.012849
0.059528
0.032230
0.056212
0.074373
0.055785
0.018457
0.076120
0.065855
0.038341
0.029726
0.041659
0.037829
0.029798
0.022078
0.009834
0.015047
0.004057
0.007488
0.005119
0.068888
0.026522
0.006987
0.070477
0.015581
0.004336
0.025858
0.026686
0.023987
0.025896
0.030392
0.044072
0.016994
0.071415
0.069643
0.037025
0.026216
0.044725
0.076822
0.024322
0.021070
0.017275
0.024964
0.014151
0.015646
0.006322
0.001275
0.029498
0.021753
0.032085
0.055706
0.067808
0.081129
0.064012
0.062104
0.011831
0.065799
0.029734
0.035061
0.004576
0.028139
0.091512
0.068821
0.033356
0.026198
0.022584
0.022178
0.056721
0.006710
0.048059
0.033142
0.015392
0.007227
0.054794
0.073761
0.036396
0.033945
0.060400
0.054812
0.091755
0.078859
0.010427
0.046848
0.076690
0.092067
0.073897
0.025689
0.051099
0.059740
0.091128
0.009459
0.025420
0.052588
0.029446
0.012971
0.004695
0.029099
0.030419
0.014753
0.010969
0.070700
0.054899
0.074929
0.014838
0.009069
0.094824
0.020542
0.007080
0.013351
0.006782
0.076625
0.017532
0.002194
0.006750
0.004243
0.014066
0.029500
0.027375
0.068692
0.071033
0.078509
0.091919
0.081869
0.061479
0.050541
0.009527
0.035402
0.003306
0.007099
0.009138
0.038330
0.074531
0.037092
