# vtk DataFile Version 2.0
Unstructured Grid Example
ASCII
DATASET UNSTRUCTURED_GRID
POINTS 1689 float
-0.003084 0.002790 0.000494 
0.996504 -0.002685 -0.001518 
1.003052 0.997807 0.001739 
0.003038 1.002965 -0.000054 
0.003180 -0.002916 0.100470 
1.003406 0.002624 0.098507 
0.996429 1.002635 0.101723 
-0.002878 0.997157 0.099970 
0.003004 0.047316 0.103468 
0.002917 0.097905 0.106117 
0.002578 0.149250 0.107382 
0.002125 0.200652 0.106560 
0.001910 0.251468 0.104472 
0.001435 0.301606 0.101526 
0.000901 0.350940 0.098791 
0.000469 0.399830 0.097656 
0.000318 0.448929 0.098434 
0.000136 0.498644 0.100337 
-0.000167 0.549091 0.102161 
-0.000666 0.600193 0.102405 
-0.000975 0.651177 0.100857 
-0.001583 0.701871 0.097913 
-0.002138 0.751502 0.094783 
-0.002463 0.800287 0.092693 
-0.002654 0.849068 0.092484 
-0.002728 0.898065 0.094122 
-0.002755 0.947421 0.096896 
-0.003103 0.052522 0.003555 
-0.002998 0.101871 0.006197 
-0.002866 0.150540 0.007579 
-0.002343 0.199250 0.006758 
-0.002013 0.248520 0.004610 
-0.001602 0.298338 0.001503 
-0.000963 0.349022 -0.001180 
-0.000464 0.400206 -0.002344 
-0.000265 0.451096 -0.001607 
-0.000065 0.501476 0.000346 
0.000148 0.550987 0.002141 
0.000569 0.599922 0.002461 
0.000994 0.648871 0.000827 
0.001621 0.698200 -0.002227 
0.002175 0.748452 -0.005510 
0.002539 0.799700 -0.007278 
0.002825 0.850900 -0.007703 
0.002794 0.902079 -0.005972 
0.002975 0.952780 -0.003142 
0.000109 -0.000108 0.050476 
-0.000011 1.000022 0.049957 
0.052932 -0.002807 0.097158 
0.102224 -0.002813 0.094069 
0.150896 -0.002773 0.092359 
0.199462 -0.002445 0.092918 
0.248372 -0.002083 0.095207 
0.298274 -0.001533 0.098309 
0.349016 -0.001137 0.101214 
0.400254 -0.000791 0.102206 
0.451370 -0.000642 0.101163 
0.501685 -0.000595 0.098853 
0.551163 -0.000360 0.096645 
0.599937 -0.000027 0.096021 
0.648760 0.000453 0.097618 
0.698030 0.000993 0.101009 
0.748201 0.001707 0.104414 
0.799525 0.002252 0.107070 
0.851173 0.002541 0.107730 
0.902354 0.002479 0.105563 
0.953130 0.002508 0.102186 
0.047169 0.002841 -0.002927 
0.098000 0.002940 -0.006126 
0.149288 0.002978 -0.007848 
0.200781 0.002580 -0.007359 
0.251678 0.002170 -0.004916 
0.301782 0.001665 -0.001671 
0.351057 0.001141 0.001191 
0.399792 0.000743 0.002252 
0.448694 0.000578 0.001200 
0.498319 0.000504 -0.001166 
0.548866 0.000419 -0.003391 
0.600034 0.000135 -0.004085 
0.651251 -0.000394 -0.002359 
0.701984 -0.001117 0.000932 
0.751795 -0.001838 0.004848 
0.800749 -0.002435 0.007447 
0.848915 -0.002625 0.007766 
0.897593 -0.002668 0.005629 
0.946704 -0.002688 0.002225 
1.000010 0.000031 0.048514 
1.003237 0.052372 0.095799 
1.003152 0.101651 0.093456 
1.002928 0.150290 0.092456 
1.002413 0.199199 0.093663 
1.001853 0.248584 0.095935 
1.001149 0.298482 0.098924 
1.000562 0.349158 0.101804 
1.000175 0.400276 0.102834 
1.000052 0.451208 0.101895 
0.999942 0.501516 0.099932 
0.999846 0.551044 0.097925 
0.999496 0.599879 0.097331 
0.999358 0.649010 0.098466 
0.998815 0.698451 0.101056 
0.998190 0.748466 0.104171 
0.997569 0.799421 0.106473 
0.997326 0.850583 0.107279 
0.997109 0.901602 0.106307 
0.996765 0.952342 0.104200 
0.996538 0.047599 -0.004294 
0.996602 0.098399 -0.006734 
0.996888 0.149513 -0.007638 
0.997519 0.200812 -0.006529 
0.998034 0.251534 -0.004162 
0.998704 0.301673 -0.001043 
0.999435 0.350980 0.001871 
0.999852 0.399760 0.003042 
1.000007 0.448894 0.002005 
0.999957 0.498577 -0.000102 
0.999998 0.549003 -0.002070 
1.000219 0.599951 -0.002740 
1.000669 0.650937 -0.001587 
1.001435 0.701543 0.001193 
1.002097 0.751444 0.004351 
1.002776 0.800610 0.006829 
1.003095 0.849644 0.007454 
1.003192 0.898689 0.006462 
1.003214 0.948071 0.004284 
0.999658 1.000290 0.051721 
0.946715 1.002381 0.098167 
0.897548 1.002351 0.094726 
0.848808 1.002381 0.092477 
0.800481 1.002161 0.092907 
0.751821 1.001630 0.095400 
0.702106 1.000901 0.099151 
0.651352 1.000278 0.102751 
0.599939 0.999806 0.104256 
0.548607 0.999593 0.103449 
0.498189 0.999488 0.100986 
0.448688 0.999410 0.098571 
0.399812 0.999161 0.097637 
0.350925 0.998991 0.098533 
0.301810 0.998418 0.101338 
0.251439 0.997974 0.104753 
0.200261 0.997715 0.106940 
0.149252 0.997302 0.107611 
0.098033 0.997400 0.105945 
0.047322 0.997288 0.103037 
0.952805 0.997505 -0.001915 
0.902106 0.997321 -0.005422 
0.850860 0.997241 -0.007569 
0.799392 0.997459 -0.007527 
0.748249 0.998068 -0.004842 
0.697975 0.998819 -0.000900 
0.648643 0.999793 0.002853 
0.600074 1.000388 0.004453 
0.551283 1.000640 0.003450 
0.501760 1.000633 0.001038 
0.451266 1.000558 -0.001423 
0.400143 1.000597 -0.002447 
0.348981 1.000936 -0.001461 
0.298184 1.001523 0.001512 
0.248337 1.002124 0.004840 
0.199254 1.002514 0.007337 
0.150723 1.002822 0.007730 
0.102039 1.002847 0.006134 
0.052790 1.002925 0.003118 
0.675257 1.000068 0.051323 
0.574979 1.000168 0.052986 
0.775140 1.000013 0.044911 
0.474787 1.000000 0.049617 
0.875413 0.999924 0.043939 
0.375105 0.999830 0.049057 
0.275149 0.999848 0.053209 
0.175007 0.999907 0.057815 
0.072019 0.999974 0.054487 
0.929598 0.999987 0.046049 
0.424807 0.999906 0.049937 
0.524898 1.000061 0.050154 
0.824848 1.000055 0.044344 
0.725286 1.000096 0.049511 
0.625119 1.000108 0.051867 
0.225153 0.999969 0.054297 
0.325195 0.999821 0.051898 
0.124683 0.999755 0.059272 
0.032022 0.999143 0.066959 
0.966936 1.000888 0.064857 
0.970857 0.999254 0.031307 
0.032147 1.001095 0.032923 
0.500404 0.500022 0.099998 
0.291769 0.296063 0.099657 
0.706942 0.704570 0.100482 
0.709569 0.290498 0.099472 
0.290628 0.709779 0.100542 
0.499321 0.782426 0.099252 
0.781220 0.498899 0.100085 
0.500646 0.217533 0.100693 
0.222858 0.505014 0.100337 
0.168846 0.169383 0.099850 
0.832184 0.170252 0.100778 
0.829719 0.832104 0.099315 
0.167572 0.830002 0.100358 
0.565166 0.641306 0.100879 
0.434474 0.357200 0.100409 
0.645493 0.432881 0.100250 
0.354719 0.566758 0.100802 
0.638834 0.846624 0.103975 
0.360361 0.153325 0.104830 
0.151526 0.361210 0.095523 
0.846659 0.360694 0.103719 
0.847203 0.641439 0.096286 
0.640996 0.153202 0.095990 
0.359155 0.846638 0.095051 
0.153213 0.634754 0.104627 
0.678313 0.580072 0.099661 
0.321988 0.420250 0.098198 
0.561084 0.329809 0.098988 
0.439051 0.670507 0.098966 
0.533026 0.882403 0.101619 
0.466622 0.117103 0.102222 
0.882888 0.466989 0.101513 
0.119702 0.464043 0.098198 
0.745494 0.897130 0.099573 
0.110128 0.257873 0.099668 
0.258299 0.096527 0.099963 
0.897340 0.254767 0.100227 
0.887916 0.736047 0.099356 
0.735593 0.112041 0.099874 
0.264303 0.887583 0.099532 
0.110315 0.739509 0.100312 
0.600400 0.741434 0.102534 
0.401989 0.256635 0.103293 
0.739275 0.394055 0.101750 
0.259865 0.603882 0.103213 
0.602362 0.524385 0.100283 
0.397534 0.475362 0.099579 
0.612391 0.253417 0.097089 
0.388060 0.746929 0.096832 
0.099578 0.092640 0.099959 
0.904515 0.095925 0.100306 
0.903578 0.903789 0.100167 
0.096865 0.903800 0.100216 
0.436291 0.902851 0.096625 
0.903834 0.563724 0.097069 
0.563583 0.096523 0.096795 
0.096368 0.561979 0.103295 
0.258234 0.201846 0.101382 
0.741655 0.797706 0.100903 
0.797778 0.257400 0.101199 
0.207791 0.747417 0.101478 
0.196400 0.278997 0.097743 
0.798955 0.715399 0.098153 
0.713104 0.206030 0.097999 
0.286997 0.794318 0.097963 
0.503067 0.411409 0.099810 
0.496992 0.588805 0.100221 
0.241169 0.366791 0.096251 
0.759993 0.633175 0.097752 
0.694769 0.498860 0.100167 
0.306630 0.501230 0.099826 
0.641262 0.342200 0.099096 
0.359030 0.658255 0.100002 
0.083245 0.183489 0.103072 
0.178926 0.082951 0.097019 
0.816930 0.920204 0.096449 
0.920465 0.182747 0.097469 
0.914754 0.820819 0.102331 
0.820918 0.085271 0.103529 
0.079471 0.816855 0.096863 
0.184939 0.911391 0.102952 
0.651226 0.654567 0.100866 
0.514824 0.699155 0.100155 
0.350037 0.343873 0.099811 
0.485733 0.303750 0.100641 
0.608930 0.917709 0.104163 
0.390543 0.081597 0.104047 
0.078148 0.394882 0.096355 
0.917999 0.391117 0.103512 
0.924600 0.660199 0.097318 
0.659936 0.075264 0.096930 
0.340050 0.924220 0.096941 
0.074341 0.662428 0.102489 
0.430939 0.821658 0.096000 
0.822097 0.565508 0.097445 
0.569236 0.178272 0.097140 
0.179085 0.565976 0.103595 
0.190675 0.430910 0.096523 
0.572942 0.818752 0.102846 
0.426351 0.181446 0.104204 
0.818695 0.427831 0.102742 
0.565773 0.457586 0.099946 
0.434323 0.542218 0.100065 
0.666358 0.780843 0.102954 
0.774093 0.331700 0.102186 
0.224003 0.668344 0.103779 
0.334177 0.219629 0.103674 
0.678108 0.931294 0.102202 
0.069657 0.318108 0.098241 
0.322086 0.068099 0.102090 
0.931452 0.322233 0.101996 
0.746656 0.559790 0.098510 
0.447145 0.737496 0.097683 
0.553145 0.262675 0.098600 
0.614189 0.593584 0.100469 
0.384963 0.407005 0.099390 
0.257684 0.443055 0.097537 
0.586442 0.393834 0.099498 
0.413819 0.606050 0.099973 
0.450739 0.427369 0.099760 
0.549004 0.572666 0.100439 
0.483932 0.934718 0.099328 
0.935214 0.515911 0.099225 
0.516054 0.064332 0.098842 
0.064906 0.513227 0.100921 
0.499013 0.838590 0.099355 
0.836491 0.507383 0.099535 
0.500842 0.161102 0.100551 
0.153554 0.498934 0.100142 
0.696607 0.842986 0.102559 
0.303248 0.157086 0.103311 
0.842568 0.303118 0.102570 
0.149307 0.702573 0.102899 
0.160682 0.229805 0.099485 
0.841241 0.774036 0.099429 
0.773581 0.158729 0.100087 
0.226160 0.841185 0.099918 
0.668928 0.237542 0.097251 
0.331324 0.762789 0.097340 
0.706421 0.359323 0.100796 
0.293538 0.640389 0.102257 
0.939773 0.607124 0.096699 
0.607148 0.059854 0.095957 
0.392730 0.939454 0.096348 
0.059065 0.607643 0.103316 
0.741311 0.465646 0.100954 
0.265619 0.533293 0.101311 
0.056748 0.051563 0.100225 
0.948883 0.056216 0.099549 
0.943142 0.947947 0.100683 
0.051474 0.944211 0.099967 
0.773534 0.946969 0.096377 
0.058033 0.233260 0.102973 
0.226868 0.053389 0.096615 
0.942493 0.770451 0.102624 
0.770365 0.057364 0.103585 
0.229816 0.941476 0.103379 
0.947265 0.226531 0.097151 
0.053772 0.772134 0.096449 
0.220565 0.158631 0.100302 
0.775988 0.848471 0.099536 
0.848554 0.224173 0.100596 
0.154591 0.776028 0.100409 
0.550686 0.947669 0.103033 
[...]
POINT_DATA 1689
SCALARS u float 1
LOOKUP_TABLE default
0.077465
0.086241
0.076604
0.078528
0.080275
0.084178
0.088062
0.074830
0.098313
0.131197
0.145297
0.128120
0.093959
0.048829
0.032868
0.044334
0.035586
0.025974
0.043480
0.046295
0.032406
0.059547
0.107926
0.142723
0.148439
0.125087
0.090372
0.098960
0.131951
0.150207
0.133028
0.096982
0.050951
0.033469
0.044365
0.036314
0.028060
0.043686
0.046745
0.031760
0.060853
0.113258
0.142686
0.152671
0.127866
0.095132
0.009245
0.000913
0.091651
0.128196
0.151260
0.138937
0.101241
0.052920
0.035745
0.043600
0.035299
0.039272
0.066011
0.073605
0.050372
0.044871
0.093646
0.137530
0.152066
0.120772
0.084493
0.091851
0.131022
0.155811
0.144955
0.104122
0.054676
0.036230
0.044030
0.034499
0.038967
0.066593
0.075607
0.049922
0.045501
0.101493
0.145574
0.152947
0.123528
0.088786
0.027494
0.107466
0.137783
0.149769
0.126300
0.086679
0.040451
0.038254
0.052764
0.041578
0.028083
0.043061
0.050289
0.035799
0.041023
0.088755
0.128346
0.143832
0.131710
0.107200
0.111265
0.142620
0.152819
0.130064
0.089743
0.043639
0.040439
0.056511
0.042353
0.026397
0.042496
0.050843
0.036273
0.044791
0.093239
0.136811
0.149441
0.135501
0.105294
0.032897
0.082344
0.116034
0.147614
0.137443
0.096348
0.045193
0.056931
0.078820
0.069205
0.039290
0.037493
0.046502
0.037112
0.050878
0.099214
0.135231
0.149999
0.125414
0.090136
0.077950
0.118446
0.149860
0.147368
0.101719
0.046454
0.058559
0.082689
0.069106
0.039574
0.036720
0.046657
0.037209
0.051993
0.102493
0.144116
0.152791
0.130647
0.094436
0.024970
0.080984
0.119849
0.008112
0.124958
0.043291
0.059480
0.144555
0.083365
0.063561
0.042739
0.044299
0.147486
0.050736
0.075982
0.118046
0.007977
0.133081
0.043282
0.031013
0.022553
0.045159
0.002079
0.025686
0.020138
0.019982
0.025723
0.026637
0.017695
0.027437
0.028236
0.011427
0.018737
0.017080
0.014994
0.017007
0.011644
0.007524
0.018010
0.073594
0.089598
0.083488
0.068842
0.068752
0.074261
0.091808
0.085903
0.010958
0.034736
0.020105
0.021997
0.039693
0.049525
0.035783
0.041729
0.029917
0.029542
0.033952
0.027796
0.025251
0.028362
0.032365
0.029346
0.047873
0.062545
0.034840
0.060791
0.005502
0.008714
0.054659
0.060512
0.048027
0.051103
0.048177
0.049588
0.065792
0.056033
0.061381
0.063114
0.031738
0.021919
0.024359
0.030998
0.045416
0.036405
0.040526
0.042668
0.003728
0.005242
0.070554
0.043627
0.009866
0.012942
0.019967
0.014440
0.065413
0.065285
0.072270
0.058546
0.053693
0.072944
0.068421
0.064627
0.019421
0.014029
0.018418
0.016903
0.077003
0.076758
0.068288
0.065257
0.053228
0.060763
0.062932
0.052441
0.075380
0.048937
0.055849
0.069195
0.066373
0.055111
0.079029
0.052362
0.003013
0.003068
0.055716
0.042814
0.070984
0.069631
0.049933
0.043426
0.049927
0.044015
0.029883
0.045301
0.031154
0.009588
0.013233
0.048227
0.011053
0.005512
0.004990
0.008780
0.031816
0.028082
0.035664
0.029759
0.030920
0.021827
0.030339
0.028882
0.050481
0.064456
0.049139
0.058481
0.018438
0.015519
0.016899
0.014366
0.052297
0.053071
0.020823
0.044626
0.062017
0.074837
0.069209
0.063174
0.021629
0.030953
0.068014
0.067903
0.065046
0.062893
0.075667
0.065411
0.073667
0.060559
0.074878
0.074308
0.065597
0.075449
0.016265
0.018402
0.017920
0.019727
0.060070
0.044066
0.045607
0.046328
0.061664
0.052685
0.053512
0.061617
0.039446
0.044005
0.005487
0.008154
0.075374
0.027044
0.031693
0.040626
0.017942
0.030636
0.032677
0.088583
0.093275
0.088510
0.091728
0.098286
0.087613
0.090036
0.094256
0.005991
0.019491
0.082642
0.034462
0.030971
0.015729
0.035496
0.068370
0.084655
0.062986
0.024022
0.017547
0.017870
0.021432
0.050323
0.031956
0.083859
0.066998
0.055803
0.034770
0.034030
0.043435
0.039966
0.034053
0.039795
0.029398
0.038282
0.083240
0.069337
0.005262
0.009269
0.007652
0.008541
0.008511
0.009051
0.037401
0.031316
0.086863
0.070570
0.077411
0.077979
0.062529
0.003462
0.003214
0.073825
0.055210
0.065070
0.072720
0.029197
0.062271
0.072495
0.058097
0.049658
0.049417
0.063995
0.050775
0.021193
0.037469
0.025478
0.033293
0.027102
0.031400
0.031463
0.067605
0.065848
0.048447
0.002819
0.001783
0.081994
0.042457
0.042301
0.042369
0.036416
0.060367
0.035275
0.022794
0.031860
0.007933
0.010349
0.048261
0.013787
0.023278
0.069491
0.053305
0.056877
0.053147
0.053316
0.014962
0.027289
0.038986
0.043975
0.032092
0.042436
0.029940
0.040868
0.036689
0.024009
0.044078
0.105391
0.112598
0.105705
0.113427
0.102971
0.115832
0.113410
0.109337
0.068688
0.021278
0.020883
0.040778
0.014024
0.032372
0.024621
0.004183
0.003763
0.019625
0.010114
0.013497
0.014422
0.030590
0.067111
0.004231
0.009774
0.023544
0.025568
0.016124
0.019967
0.017990
0.009498
0.023361
0.041274
0.035495
0.045307
0.036078
0.069908
0.047519
0.061960
0.075894
0.065487
0.043930
0.032089
0.042491
0.038554
0.058444
0.037422
0.076530
0.054282
0.059000
0.058232
0.061707
0.045832
0.045397
0.054216
0.086666
0.063812
0.070319
0.081041
0.043484
0.036329
0.036720
0.063448
0.006346
0.001993
0.027089
0.044276
0.037821
0.045226
0.076096
0.085928
0.068505
0.027653
0.029372
0.041224
0.023678
0.062155
0.056723
0.079524
0.042170
0.042954
0.050052
0.052869
0.085321
0.082190
0.088022
0.073122
0.077487
0.082238
0.078078
0.078985
0.060633
0.015256
0.059686
0.065093
0.020687
0.017527
0.023725
0.029714
0.004756
0.007145
0.041858
0.051889
0.031933
0.039338
0.021125
0.030776
0.063517
0.053840
0.031888
0.038549
0.007294
0.012235
0.003281
0.003366
0.061234
0.053695
0.044643
0.037539
0.039278
0.035722
0.069136
0.062687
0.010640
0.090017
0.030431
0.043776
0.029921
0.030769
0.063905
0.071271
0.045299
0.045573
0.041212
0.059493
0.026283
0.079828
0.010033
0.008014
0.018692
0.016127
0.020272
0.017398
0.012111
0.026295
0.039708
0.032571
0.034225
0.034144
0.031398
0.037978
0.005217
0.018912
0.035815
0.026573
0.030940
0.040544
0.038972
0.046934
0.039343
0.033185
0.048989
0.065102
0.046298
0.055060
0.072028
0.074387
0.075550
0.067380
0.025248
0.043617
0.013423
0.036014
0.021707
0.046313
0.026914
0.043717
0.013472
0.009517
0.077957
0.069573
0.059553
0.072278
0.055578
0.061879
0.049690
0.065969
0.032933
0.029635
0.006218
0.006557
0.032132
0.038990
0.036257
0.031531
0.031699
0.136065
0.100269
0.049506
0.019619
0.051843
0.010818
0.051064
0.106571
0.132185
0.097655
0.022907
0.013922
0.100302
0.138921
0.051140
0.135933
0.048502
0.045194
0.065462
0.067974
0.064622
0.065640
0.147351
0.081086
0.060842
0.038860
0.045082
0.051764
0.066816
0.071496
0.151016
0.004163
0.075653
0.118167
0.133940
0.002343
0.116786
0.017534
0.129154
0.040697
0.029751
0.040494
0.038538
0.032913
0.003184
0.030742
0.023097
0.024312
0.030872
0.030987
0.021221
0.032148
0.033053
0.012891
0.018799
0.018945
0.014506
0.018265
0.013405
0.008304
0.017823
0.074802
0.091819
0.084880
0.069291
0.070028
0.075886
0.089631
0.087213
0.012529
0.036704
0.021385
0.023079
0.043763
0.052994
0.038421
0.046091
0.037572
0.033955
0.038088
0.031431
0.031323
0.033199
0.035682
0.034317
0.049353
0.063307
0.037036
0.061702
0.005901
0.009348
0.055651
0.062762
0.051854
0.055218
0.053885
0.052835
0.067484
0.056514
0.063785
0.064145
0.035318
0.024701
0.026074
0.034483
0.044683
0.037596
0.042283
0.045267
0.003618
0.005928
0.072398
0.045440
0.010783
0.014749
0.021775
0.017514
0.068226
0.065097
0.076846
0.060383
0.059450
0.075745
0.068777
0.064715
0.021278
0.017285
0.022196
0.017367
0.077674
0.077448
0.068317
0.065486
0.055056
0.060717
0.066285
0.053829
0.077826
0.050564
0.057749
0.068496
0.067824
0.056923
0.080281
0.053798
0.003961
0.002599
0.057284
0.044135
0.072943
0.070364
0.053599
0.046460
0.052582
0.046604
0.031283
0.047029
0.032742
0.010967
0.014242
0.049962
0.011572
0.005946
0.005649
0.009306
0.037150
0.032059
0.039998
0.034548
0.036788
0.025522
0.036305
0.035899
0.052554
0.067183
0.051569
0.060028
0.021164
0.017833
0.021101
0.016121
0.054463
0.055509
0.022416
0.046124
0.062588
0.075564
0.069384
0.063893
0.021829
0.031755
0.069690
0.072455
0.067295
0.067748
0.082412
0.069436
0.076140
0.067628
0.076854
0.076103
0.068727
0.077137
0.017516
0.023425
0.019238
0.022291
0.062891
0.045263
0.048126
0.049741
0.064186
0.054182
0.054988
0.063950
0.040684
0.045832
0.006936
0.009854
0.076536
0.030643
0.035503
0.041910
0.021673
0.033189
0.033707
0.089665
0.095221
0.091613
0.095005
0.098286
0.093367
0.091873
0.097024
0.004965
0.020408
0.086186
0.035310
0.033497
0.017140
0.036479
0.070128
0.086647
0.064302
0.028925
0.020198
0.021177
0.027172
0.053292
0.034075
0.085618
0.067971
0.057731
0.039639
0.040859
0.047916
0.046340
0.035115
0.041995
0.034542
0.039433
0.085792
0.070609
0.004077
0.010599
0.009468
0.008918
0.009795
0.011658
0.039272
0.034945
0.084969
0.070737
0.078931
0.079407
0.063142
0.004310
0.004256
0.074405
0.057052
0.066983
0.074723
0.031847
0.064190
0.073962
0.060358
0.050910
0.050274
0.065659
0.052460
0.025328
0.039265
0.027080
0.040408
0.031538
0.037206
0.038093
0.069907
0.067857
0.050188
0.003495
0.002463
0.083212
0.049099
0.046671
0.049159
0.041293
0.057251
0.038443
0.025072
0.032520
0.008598
0.010641
0.052352
0.014709
0.024219
0.070194
0.052649
0.057571
0.054792
0.056332
0.014716
0.029354
0.042786
0.049227
0.036705
0.043958
0.035172
0.044480
0.038639
0.026902
0.047823
0.107325
0.113717
0.105161
0.116517
0.106004
0.117163
0.115067
0.107799
0.070516
0.023227
0.023169
0.041706
0.016962
0.033701
0.027911
0.005011
0.004229
0.020282
0.011790
0.015367
0.015508
0.033192
0.069295
0.005453
0.010632
0.026462
0.027801
0.018060
0.023505
0.019766
0.011357
0.024213
0.043780
0.038764
0.043915
0.037682
0.070431
0.049405
0.063306
0.077551
0.066431
0.051040
0.034486
0.044446
0.042159
0.061602
0.039451
0.077347
0.055681
0.060014
0.056794
0.065213
0.047969
0.048655
0.056749
0.089301
0.065195
0.071258
0.081412
0.047807
0.040455
0.038311
0.064981
0.007183
0.001866
0.035019
0.048209
0.038078
0.047731
0.077063
0.086385
0.068591
0.028978
0.031930
0.044690
0.028227
0.064311
0.057485
0.081234
0.046252
0.046308
0.054410
0.056277
0.086627
0.084613
0.091302
0.077621
0.082375
0.086581
0.082131
0.084112
0.063609
0.016983
0.062589
0.067300
0.023324
0.020948
0.027214
0.033839
0.005762
0.006873
0.045919
0.055412
0.035987
0.043255
0.025657
0.033466
0.066022
0.054747
0.033100
0.040139
0.008432
0.012872
0.003985
0.004068
0.062384
0.054681
0.047596
0.038378
0.042162
0.039408
0.070311
0.064116
0.013204
0.091659
0.031764
0.046256
0.033720
0.034363
0.064651
0.073303
0.046612
0.048081
0.042270
0.061931
0.028988
0.081948
0.010938
0.008648
0.019903
0.018823
0.022657
0.021823
0.014951
0.027804
0.041960
0.034691
0.036534
0.037334
0.031994
0.038521
0.005893
0.019988
0.037155
0.030874
0.034009
0.042980
0.042954
0.048832
0.042857
0.038438
0.048386
0.065374
0.047854
0.054621
0.074235
0.080570
0.073135
0.074931
0.028751
0.045162
0.016372
0.037282
0.024568
0.048691
0.028276
0.044350
0.014579
0.010816
0.078715
0.069691
0.061503
0.072856
0.057922
0.064312
0.054522
0.068629
0.036162
0.034168
0.006637
0.007256
0.037289
0.043197
0.040090
0.034591
0.036279
0.107157
0.088964
0.002302
0.013433
0.072709
0.036055
0.145571
0.082893
0.139365
0.041893
0.027269
0.058476
0.125620
0.008396
0.130967
0.048348
0.041642
0.133099
0.043766
0.052188
0.050933
0.045053
0.050355
0.022117
0.102560
0.046038
0.062307
0.026352
0.052121
0.065891
0.021815
0.012841
0.091084
0.084219
0.042226
0.064368
0.058444
0.094542
0.041811
0.073650
0.068519
0.055292
0.010620
0.028172
0.095064
0.028482
0.041312
0.079777
0.069571
0.028437
0.035939
0.060214
0.091768
0.042009
0.027147
0.057231
0.070622
0.037630
0.009783
0.013065
0.088422
0.069837
0.043183
0.073675
0.086317
0.086212
0.037784
0.023839
0.012195
0.013929
0.053722
0.064718
0.054108
0.064264
0.023088
0.046182
0.061169
0.029778
0.034657
0.028200
0.084463
0.018616
0.028350
0.019366
0.021702
0.081721
0.062953
0.018574
0.054204
0.009821
0.003821
0.006326
0.036302
0.006698
0.011228
0.019250
0.058483
0.019644
0.041907
0.044330
0.034990
0.048231
0.057765
0.069767
0.062487
0.067320
0.014739
0.009025
0.029040
0.007497
0.073598
0.090508
0.003798
0.001696
0.019778
0.019075
0.056659
0.068216
0.024675
0.017788
0.042124
0.012776
0.065568
0.021457
0.016950
0.011111
0.055751
0.004748
0.011583
0.014123
0.030138
0.009188
0.053540
0.001095
0.001311
0.000740
0.046044
0.054323
0.048382
0.045826
0.022588
0.007162
0.021917
0.010919
0.007908
0.017905
0.069927
0.011280
0.042532
0.032191
0.068864
0.073978
0.090489
0.052446
0.046741
0.037734
0.012622
0.028410
0.064688
0.026738
0.067523
0.068242
0.026412
0.056127
0.051188
0.068405
0.008142
0.037920
0.083685
0.027400
0.017578
0.013450
0.004740
0.007006
0.008051
0.081469
0.015111
0.003154
0.047302
0.010855
0.034135
0.059827
0.002944
0.061671
0.004306
0.008168
0.009784
0.012754
0.054236
0.068990
0.004285
0.017097
0.013389
0.015358
0.032231
0.044167
0.018642
0.047882
0.062119
0.042731
0.034968
0.007988
0.030013
0.053890
0.028538
0.037226
0.006724
0.003680
0.038387
0.001745
0.003891
0.051277
0.053332
0.047744
0.007756
0.001165
0.062213
0.072570
0.089244
0.066421
0.003786
0.014929
0.016383
0.019844
0.055628
0.027687
0.061762
0.033231
0.044905
0.011458
0.074811
0.035833
0.013346
0.020674
0.013260
0.065359
0.056291
0.053970
0.031287
0.018259
0.009144
0.023757
0.007333
0.042049
0.041513
0.007651
0.014116
0.012491
0.046622
0.049194
0.018152
0.073296
0.028785
0.082022
0.084600
0.060888
0.094462
0.065179
0.037847
0.015876
0.031679
0.037222
0.029451
0.019576
0.076647
0.009145
0.002914
0.004734
0.006261
0.002249
0.031515
0.027530
0.050608
0.033169
0.044258
0.047299
0.071602
0.048498
0.074389
0.071504
0.078881
0.069747
0.043320
0.005287
0.004641
0.002539
0.072882
0.059913
0.055906
0.010874
0.049060
0.074865
0.057116
0.031495
0.039401
0.078480
0.069740
0.051377
0.084753
0.059534
0.012202
0.026293
0.027599
0.034856
0.016274
0.030705
0.047651
0.007397
0.006839
0.018931
0.080400
0.025653
0.013975
0.007600
0.009051
0.031320
0.008022
0.012529
0.005219
0.066275
0.010607
0.084888
0.040737
0.039304
0.074569
0.059728
0.090591
0.025852
0.081710
0.078704
0.024142
0.076667
0.051639
0.002145
0.020184
0.034593
0.035146
0.058138
0.001836
0.027575
0.039284
0.088086
0.008989
0.040237
0.013368
0.008138
0.019213
0.012172
0.011557
0.001938
0.013595
0.051146
0.011283
0.082815
0.013202
0.020180
0.043684
0.026363
0.012849
0.059528
0.032230
0.056212
0.074373
0.055785
0.018457
0.076120
0.065855
0.038341
0.029726
0.041659
0.037829
0.029798
0.022078
0.009834
0.015047
0.004057
0.007488
0.005119
0.068888
0.026522
0.006987
0.070477
0.015581
0.004336
0.025858
0.026686
0.023987
0.025896
0.030392
0.044072
0.016994
0.071415
0.069643
0.037025
0.026216
0.044725
0.076822
0.024322
0.021070
0.017275
0.024964
0.014151
0.015646
0.006322
0.001275
0.029498
0.021753
0.032085
0.055706
0.067808
0.081129
0.064012
0.062104
0.011831
0.065799
0.029734
0.035061
0.004576
0.028139
0.091512
0.068821
0.033356
0.026198
0.022584
0.022178
0.056721
0.006710
0.048059
0.033142
0.015392
0.007227
0.054794
0.073761
0.036396
0.033945
0.060400
0.054812
0.091755
0.078859
0.010427
0.046848
0.076690
0.092067
0.073897
0.025689
0.051099
0.059740
0.091128
0.009459
0.025420
0.052588
0.029446
0.012971
0.004695
0.029099
0.030419
0.014753
0.010969
0.070700
0.054899
0.074929
0.014838
0.009069
0.094824
0.020542
0.007080
0.013351
0.006782
0.076625
0.017532
0.002194
0.006750
0.004243
0.014066
0.029500
0.027375
0.068692
0.071033
0.078509
0.091919
0.081869
0.061479
0.050541
0.009527
0.035402
0.003306
0.007099
0.009138
0.038330
0.074531
0.037092
