# vtk DataFile Version 2.0
Unstructured Grid Example
ASCII
DATASET UNSTRUCTURED_GRID
POINTS 1221 float
-0.010123 0.010962 -0.001008 
0.997889 0.004351 0.001082 
0.989965 1.010690 -0.001509 
-0.002292 1.004862 0.002480 
-0.010351 0.010606 0.049006 
0.997613 0.004745 0.051111 
0.990237 1.011235 0.048480 
-0.002003 1.003642 0.052460 
-0.005211 0.059979 0.049503 
-0.000292 0.108271 0.050177 
0.003573 0.156042 0.050691 
0.005296 0.203294 0.050461 
0.005387 0.250685 0.050125 
0.003282 0.298518 0.049739 
-0.000097 0.347484 0.049222 
-0.003779 0.397484 0.048908 
-0.006772 0.448662 0.049377 
-0.008364 0.500767 0.050224 
-0.008173 0.553201 0.050986 
-0.006594 0.604940 0.051311 
-0.004487 0.656042 0.050886 
-0.002500 0.706176 0.049968 
-0.001349 0.755493 0.048872 
-0.000950 0.804524 0.048428 
-0.001442 0.853700 0.048703 
-0.002089 0.903402 0.049675 
-0.002326 0.953430 0.051047 
-0.005084 0.060338 -0.000632 
-0.000147 0.108706 -0.000306 
0.003654 0.156239 -0.000084 
0.005599 0.202909 -0.000236 
0.005415 0.250548 -0.000428 
0.003357 0.298530 -0.000790 
-0.000005 0.347265 -0.000936 
-0.003687 0.397697 -0.000761 
-0.006787 0.449289 -0.000100 
-0.008501 0.501373 0.000890 
-0.008589 0.553477 0.001604 
-0.007069 0.604825 0.001795 
-0.004722 0.655469 0.001143 
-0.002460 0.705385 -0.000038 
-0.000977 0.754904 -0.001176 
-0.000676 0.804461 -0.001656 
-0.001246 0.854110 -0.001361 
-0.002102 0.904274 -0.000308 
-0.002518 0.954656 0.001077 
-0.010187 0.010718 0.024012 
-0.002106 1.004198 0.027436 
0.040233 0.005566 0.049257 
0.091869 0.000427 0.049429 
0.144557 -0.003619 0.049096 
0.197916 -0.005786 0.048855 
0.250722 -0.005839 0.048581 
0.302599 -0.003383 0.048513 
0.353905 0.000654 0.048703 
0.403521 0.004815 0.049053 
0.451735 0.008358 0.049733 
0.499057 0.010187 0.050613 
0.546268 0.009886 0.051242 
0.594533 0.007751 0.051544 
0.643786 0.004878 0.051417 
0.694092 0.002080 0.050964 
0.744879 0.000270 0.050425 
0.796131 0.000015 0.050232 
0.847280 0.000974 0.050131 
0.897686 0.002523 0.050397 
0.947683 0.003999 0.050770 
0.040471 0.005785 -0.000594 
0.092048 0.000646 -0.000085 
0.144049 -0.003247 0.000029 
0.197501 -0.005168 -0.000468 
0.250317 -0.005211 -0.000764 
0.302457 -0.002854 -0.001043 
0.353990 0.001025 -0.001259 
0.403784 0.005234 -0.001323 
0.452234 0.008586 -0.000939 
0.499612 0.010144 -0.000261 
0.546680 0.009852 0.000470 
0.594722 0.007508 0.000964 
0.643613 0.004482 0.001211 
0.693705 0.001461 0.001000 
0.744819 -0.000225 0.000696 
0.796081 -0.000377 0.000438 
0.847277 0.000709 0.000273 
0.897890 0.002246 0.000392 
0.947992 0.003540 0.000739 
0.997779 0.004506 0.026081 
0.997211 0.054516 0.050643 
0.997652 0.104126 0.050138 
0.998517 0.153914 0.049865 
0.999042 0.204390 0.049911 
0.998838 0.255027 0.050118 
0.997462 0.305472 0.050518 
0.995603 0.355673 0.050515 
0.993403 0.405023 0.050368 
0.991880 0.453485 0.050011 
0.991696 0.501207 0.049590 
0.993266 0.548849 0.049363 
0.996216 0.597343 0.049615 
0.999772 0.647138 0.050215 
1.003122 0.698563 0.050550 
1.005250 0.750571 0.050642 
1.005540 0.803292 0.050521 
1.003549 0.856471 0.050132 
1.000016 0.908871 0.049580 
0.995219 0.960544 0.049024 
0.997499 0.054155 0.000570 
0.997784 0.103785 0.000046 
0.998471 0.154019 -0.000160 
0.999105 0.204578 -0.000018 
0.998893 0.255283 0.000251 
0.997580 0.305652 0.000373 
0.995436 0.355583 0.000280 
0.993319 0.404712 -0.000039 
0.991724 0.453069 -0.000623 
0.991557 0.500929 -0.001083 
0.992972 0.548962 -0.001205 
0.996051 0.597947 -0.000662 
0.999856 0.647674 0.000319 
1.003346 0.698524 0.001020 
1.005554 0.750364 0.001267 
1.005552 0.802953 0.001210 
1.003734 0.855960 0.000842 
0.999817 0.908390 -0.000053 
0.995046 0.959994 -0.000805 
0.990154 1.010897 0.023494 
0.940680 1.006090 0.048858 
0.892260 1.000804 0.049534 
0.844418 0.996710 0.050114 
0.797583 0.994487 0.050574 
0.750656 0.994468 0.050580 
0.702454 0.996985 0.050414 
0.653659 1.000826 0.050253 
0.603450 1.004976 0.049829 
0.551748 1.008434 0.049669 
0.499074 1.010208 0.049313 
0.446256 1.009844 0.049129 
0.394470 1.007763 0.049052 
0.343618 1.004833 0.049181 
0.293947 1.002086 0.049456 
0.244838 1.000182 0.049932 
0.196116 0.999672 0.050431 
0.147551 1.000354 0.051063 
0.097900 1.001858 0.051470 
0.048104 1.002955 0.051985 
0.940550 1.005673 -0.001172 
0.891963 1.000420 -0.000980 
0.844113 0.996516 -0.000482 
0.797743 0.994473 -0.000375 
0.750600 0.994385 -0.000074 
0.702507 0.996860 0.000117 
0.653927 1.000737 0.000116 
0.603506 1.004941 0.000309 
0.551849 1.008411 0.000278 
0.499261 1.010044 0.000179 
0.446436 1.009843 -0.000100 
0.394614 1.007546 -0.000433 
0.343685 1.004704 -0.000605 
0.293677 1.001733 -0.000646 
0.244625 1.000114 -0.000259 
0.196040 0.999869 0.000182 
0.147177 1.000892 0.000892 
0.097776 1.002586 0.001430 
0.047773 1.004062 0.001990 
0.022167 1.004090 0.021141 
0.017729 1.003762 0.037706 
0.965924 1.008475 0.017552 
0.970486 1.009076 0.034038 
0.479896 1.010312 0.024652 
0.774164 0.994318 0.025158 
0.678412 0.998733 0.025286 
0.526441 1.009523 0.024891 
0.726557 0.995256 0.025298 
0.628798 1.002888 0.025096 
0.072903 1.002981 0.026745 
0.220415 0.999762 0.025144 
0.577650 1.006897 0.025044 
0.171821 1.000146 0.025610 
0.122640 1.001441 0.026241 
0.868058 0.998345 0.024517 
0.820851 0.995354 0.025043 
0.369011 1.006305 0.024252 
0.909639 1.002609 0.024078 
0.269296 1.000860 0.024681 
0.318588 1.003306 0.024302 
0.420247 1.009005 0.024380 
0.504959 0.494012 0.050040 
0.293017 0.293527 0.050394 
0.708330 0.703648 0.049494 
0.712687 0.286778 0.050232 
0.294547 0.705443 0.050043 
0.502757 0.785515 0.049912 
0.780996 0.496223 0.050351 
0.501116 0.227123 0.050196 
0.221205 0.500728 0.049149 
0.171693 0.167064 0.050851 
0.830952 0.168915 0.049586 
0.833897 0.827499 0.050249 
0.169105 0.829470 0.049306 
0.566529 0.638330 0.049699 
0.439243 0.357048 0.050184 
0.645816 0.431969 0.050771 
0.356675 0.561530 0.049497 
0.639265 0.847763 0.049772 
0.360327 0.154871 0.050315 
0.150445 0.361006 0.049374 
0.844409 0.359327 0.050814 
0.845609 0.641575 0.049880 
0.642476 0.156255 0.050094 
0.359273 0.849029 0.049807 
0.151170 0.634028 0.050142 
0.678726 0.578602 0.049864 
0.565433 0.328029 0.050437 
0.443995 0.666538 0.049997 
0.322118 0.417620 0.049555 
0.532931 0.889991 0.049806 
0.464516 0.126037 0.050317 
0.875251 0.466488 0.050281 
0.113513 0.466378 0.049341 
0.744622 0.891286 0.050375 
0.112800 0.258239 0.050338 
0.259012 0.092472 0.050025 
0.896137 0.257182 0.050229 
0.894411 0.736978 0.050259 
0.735738 0.109727 0.049798 
0.261673 0.889064 0.049611 
0.109918 0.739835 0.049439 
0.601620 0.740980 0.049471 
0.399737 0.260959 0.050488 
0.745453 0.400480 0.050915 
0.251821 0.593797 0.049659 
0.601858 0.515555 0.050232 
0.401325 0.469868 0.049561 
0.615799 0.253395 0.050023 
0.392078 0.745360 0.050134 
0.097783 0.094595 0.050304 
0.900037 0.097028 0.049843 
0.905889 0.902643 0.050029 
0.096430 0.907214 0.049802 
0.435462 0.911681 0.049564 
0.897257 0.563985 0.049675 
0.561918 0.105566 0.050721 
0.089771 0.564506 0.050385 
0.260132 0.199042 0.050733 
0.743263 0.794017 0.049824 
0.798866 0.255602 0.050036 
0.210892 0.742930 0.049759 
0.198624 0.277642 0.050480 
0.800304 0.714813 0.049892 
0.717116 0.204588 0.049723 
0.287849 0.791512 0.049943 
0.506827 0.407134 0.050251 
0.501958 0.583618 0.049819 
0.240153 0.364539 0.049753 
0.758480 0.633449 0.049696 
0.690177 0.496490 0.050448 
0.650509 0.340604 0.050603 
0.309374 0.500689 0.049200 
0.358581 0.650075 0.049875 
0.085668 0.184118 0.050781 
0.176894 0.078652 0.050155 
0.817422 0.913596 0.050262 
0.918502 0.184917 0.049753 
0.922723 0.821763 0.050411 
0.818472 0.082374 0.049652 
0.080323 0.820017 0.048793 
0.183041 0.913357 0.049910 
0.652751 0.653818 0.049453 
0.348936 0.342975 0.050095 
0.517067 0.696287 0.049674 
0.489053 0.303240 0.050275 
0.610042 0.921115 0.049834 
0.389443 0.086931 0.049763 
0.075027 0.395081 0.049002 
0.911475 0.392041 0.050664 
0.925623 0.660690 0.050099 
0.657936 0.078721 0.050650 
0.336985 0.928643 0.049459 
0.070895 0.664376 0.050486 
0.432444 0.826742 0.049971 
0.817104 0.565808 0.049899 
0.569998 0.182952 0.050196 
0.175629 0.565434 0.049810 
0.186896 0.431307 0.049193 
0.573411 0.822551 0.049634 
0.426455 0.183413 0.050235 
0.817807 0.425511 0.050785 
0.570242 0.451661 0.050576 
0.440044 0.536374 0.049780 
0.775383 0.327636 0.050664 
0.226653 0.664782 0.049952 
0.667708 0.780599 0.049557 
0.333528 0.217802 0.050541 
0.677710 0.928567 0.050262 
0.070840 0.318154 0.049582 
0.323304 0.067796 0.049392 
0.927524 0.325586 0.050602 
0.743944 0.557707 0.049893 
0.451296 0.737242 0.049967 
0.555480 0.264197 0.050188 
0.616345 0.591492 0.049791 
0.388155 0.402560 0.049785 
0.256920 0.441408 0.049204 
0.590366 0.387816 0.050610 
0.419454 0.602126 0.049797 
0.454703 0.423416 0.049881 
0.552695 0.567547 0.049863 
0.483261 0.944990 0.049523 
0.926677 0.516459 0.049705 
0.513786 0.075683 0.050626 
0.056893 0.516771 0.050147 
0.500172 0.845452 0.049921 
0.832322 0.507190 0.050153 
0.500284 0.159729 0.050291 
0.147587 0.501176 0.049480 
0.696765 0.840374 0.049961 
0.304129 0.154397 0.050474 
0.842142 0.301692 0.050521 
0.149026 0.701580 0.049870 
0.163885 0.229442 0.050748 
0.846385 0.771392 0.050161 
0.773503 0.156321 0.049586 
0.227194 0.840270 0.049553 
0.673572 0.236454 0.049867 
0.333562 0.760222 0.050126 
0.700085 0.350784 0.050725 
0.306335 0.639446 0.049831 
0.936202 0.606575 0.049818 
0.603575 0.067651 0.051156 
0.390718 0.947017 0.049297 
0.054042 0.609535 0.050822 
0.701729 0.428367 0.050837 
0.305269 0.553719 0.049339 
0.050173 0.058585 0.049666 
0.942739 0.057945 0.050332 
0.942152 0.950635 0.049336 
0.052088 0.948835 0.050677 
0.772321 0.939590 0.050455 
0.061781 0.233409 0.050316 
0.226475 0.047671 0.049564 
0.951355 0.772835 0.050435 
0.768258 0.054267 0.049833 
0.225551 0.944148 0.049943 
0.945918 0.230634 0.050030 
0.054366 0.775364 0.048789 
0.221941 0.155472 0.050738 
0.777055 0.842666 0.050223 
0.848074 0.224122 0.049944 
0.156345 0.774034 0.049392 
0.553105 0.956151 0.049789 
[...]
POINT_DATA 1221
SCALARS u float 1
LOOKUP_TABLE default
0.158255
0.052445
0.155975
0.062644
0.157179
0.057425
0.158324
0.051110
0.119245
0.087599
0.074645
0.066183
0.057478
0.038209
0.027882
0.049411
0.073341
0.088911
0.093465
0.088291
0.080189
0.070507
0.061033
0.051672
0.044210
0.042383
0.045233
0.122098
0.092198
0.076516
0.066811
0.057774
0.039675
0.030587
0.046697
0.072222
0.091605
0.099509
0.092534
0.077414
0.062647
0.054354
0.050854
0.047673
0.050510
0.057166
0.156825
0.055991
0.119218
0.086376
0.069822
0.066201
0.064045
0.047811
0.044088
0.063912
0.090377
0.108452
0.112590
0.101685
0.084928
0.067061
0.054448
0.041014
0.030603
0.036468
0.049581
0.118130
0.084425
0.071734
0.060949
0.055828
0.041349
0.045583
0.069765
0.094411
0.107459
0.110130
0.097649
0.083562
0.069198
0.055369
0.041920
0.029913
0.032878
0.043773
0.054372
0.056577
0.050259
0.044316
0.047561
0.054607
0.064064
0.076149
0.087830
0.093508
0.088904
0.072607
0.049093
0.030465
0.036833
0.056290
0.068419
0.078113
0.093982
0.122948
0.051670
0.046415
0.045537
0.049359
0.057176
0.065177
0.076359
0.086514
0.093638
0.090611
0.076256
0.047615
0.024890
0.040181
0.060401
0.067768
0.074958
0.088804
0.118345
0.156228
0.118431
0.082494
0.068577
0.063993
0.059271
0.041370
0.039780
0.064099
0.091212
0.108711
0.111824
0.101356
0.085152
0.067991
0.054662
0.041494
0.028500
0.033499
0.042676
0.117291
0.085794
0.072568
0.063301
0.059764
0.042540
0.042303
0.064201
0.091178
0.106594
0.110777
0.098217
0.083573
0.069716
0.056954
0.041973
0.032715
0.039138
0.053359
0.054348
0.051465
0.137596
0.141498
0.110782
0.060800
0.038635
0.101051
0.052928
0.050500
0.042758
0.048609
0.077877
0.034289
0.032070
0.075693
0.065915
0.092365
0.096549
0.061140
0.076701
0.107948
0.082270
0.017298
0.017501
0.056902
0.055567
0.045855
0.041325
0.044485
0.039759
0.053744
0.009232
0.052985
0.011647
0.039102
0.039330
0.070027
0.068134
0.012098
0.013163
0.012199
0.027884
0.008197
0.029793
0.029212
0.029120
0.030835
0.058505
0.056838
0.029515
0.084969
0.086754
0.075058
0.068502
0.056224
0.051521
0.056589
0.016641
0.050586
0.015429
0.015520
0.015614
0.013331
0.013941
0.045026
0.042684
0.067636
0.064659
0.043048
0.042494
0.004309
0.034471
0.007663
0.029536
0.092273
0.062359
0.092761
0.077066
0.038672
0.037591
0.032324
0.033245
0.029710
0.026184
0.033974
0.032984
0.071472
0.070608
0.011893
0.012744
0.045513
0.069523
0.045852
0.068273
0.058546
0.059688
0.058940
0.027558
0.059085
0.027235
0.029197
0.025751
0.020383
0.019103
0.032426
0.032848
0.041760
0.041224
0.037442
0.064197
0.007352
0.047980
0.048611
0.049040
0.054086
0.041142
0.055440
0.044573
0.038311
0.045064
0.046991
0.044030
0.080507
0.078572
0.040413
0.038763
0.007896
0.008789
0.019343
0.024798
0.021701
0.043419
0.027293
0.037681
0.038332
0.042652
0.042464
0.027767
0.075177
0.073888
0.065370
0.065428
0.110288
0.085850
0.111005
0.090584
0.073463
0.059560
0.079308
0.063339
0.026426
0.026118
0.013374
0.007040
0.049727
0.050593
0.019011
0.018934
0.042246
0.041144
0.062660
0.061552
0.036203
0.083875
0.084518
0.073718
0.055223
0.054343
0.065391
0.050633
0.066912
0.040888
0.068013
0.066016
0.069953
0.066841
0.036251
0.036985
0.038082
0.041947
0.054329
0.054369
0.008766
0.012208
0.088375
0.089619
0.088310
0.068565
0.020214
0.023759
0.007192
0.006883
0.028636
0.030039
0.051738
0.050732
0.042917
0.019021
0.018423
0.014443
0.015808
0.009793
0.009278
0.047359
0.045174
0.041856
0.039584
0.033019
0.052951
0.037885
0.030810
0.062607
0.047162
0.039103
0.032110
0.059087
0.058364
0.039461
0.053396
0.052295
0.055836
0.028429
0.025684
0.046004
0.045055
0.015754
0.015320
0.017159
0.018000
0.034333
0.044663
0.040450
0.047283
0.042051
0.042889
0.017766
0.042746
0.015354
0.034370
0.035496
0.048456
0.064454
0.048386
0.046979
0.024153
0.024482
0.058319
0.057073
0.058256
0.025215
0.058232
0.050743
0.019008
0.079496
0.078228
0.067526
0.066344
0.005984
0.006805
0.025832
0.024707
0.054225
0.010420
0.009893
0.027666
0.106917
0.068150
0.107390
0.090203
0.054997
0.016301
0.016802
0.096791
0.076624
0.098162
0.078895
0.010091
0.039537
0.040797
0.081542
0.080577
0.019343
0.047762
0.046592
0.050393
0.043929
0.055341
0.009730
0.012893
0.066636
0.068155
0.039479
0.054588
0.023437
0.014069
0.025320
0.066835
0.019895
0.032572
0.020466
0.040880
0.040403
0.021098
0.018414
0.062418
0.017892
0.019013
0.046788
0.046671
0.064566
0.064358
0.040910
0.060790
0.065097
0.034689
0.042873
0.033538
0.020833
0.021110
0.022953
0.034550
0.033032
0.077747
0.077611
0.069030
0.068044
0.036737
0.024621
0.056271
0.055777
0.033316
0.041789
0.042588
0.034393
0.031952
0.031749
0.030634
0.030370
0.062783
0.019014
0.060498
0.062551
0.030553
0.032650
0.008890
0.027765
0.027217
0.061747
0.018154
0.020073
0.066061
0.056246
0.046536
0.063906
0.048880
0.063092
0.082959
0.077117
0.058435
0.078708
0.062927
0.056545
0.036274
0.057369
0.047263
0.033017
0.058904
0.049884
0.047822
0.074593
0.058225
0.078305
0.076706
0.059910
0.022287
0.022047
0.035883
0.021365
0.021359
0.044232
0.075013
0.073633
0.038213
0.093796
0.107611
0.108050
0.088044
0.025445
0.020845
0.030058
0.020707
0.021623
0.048211
0.055184
0.053964
0.049419
0.050211
0.041759
0.061603
0.040972
0.035837
0.057083
0.007068
0.021983
0.074227
0.063528
0.062047
0.078115
0.076352
0.024966
0.013045
0.014316
0.056699
0.058581
0.049557
0.069648
0.058827
0.074768
0.077763
0.032285
0.032268
0.049451
0.049559
0.073499
0.057695
0.006743
0.007321
0.034020
0.024556
0.022814
0.030094
0.058998
0.033762
0.038162
0.034063
0.085482
0.114303
0.094081
0.113836
0.034554
0.033794
0.023840
0.031836
0.029628
0.055620
0.007374
0.021189
0.057422
0.056959
0.038021
0.033869
0.038908
0.033219
0.057905
0.054744
0.039589
0.037923
0.019341
0.018480
0.048765
0.047953
0.044257
0.044844
0.049224
0.045916
0.005364
0.015067
0.036941
0.038258
0.020444
0.048530
0.016538
0.076365
0.071786
0.077355
0.110726
0.054111
0.112223
0.045698
0.041190
0.039975
0.044254
0.021929
0.021048
0.055622
0.054570
0.050457
0.051517
0.031162
0.010442
0.049372
0.010226
0.033836
0.026920
0.036407
0.025118
0.049373
0.048079
0.070894
0.069746
0.047478
0.041360
0.099876
0.087988
0.098715
0.080877
0.138596
0.142799
0.054326
0.055897
0.086278
0.060401
0.064216
0.074483
0.083099
0.105695
0.051634
0.045672
0.046419
0.051568
0.070771
0.094027
0.091050
0.082246
0.062194
0.035303
0.049861
0.029152
0.050934
0.053057
0.138598
0.141736
0.110789
0.054450
0.030344
0.033802
0.041306
0.047686
0.066726
0.076421
0.062972
0.097709
0.053636
0.101748
0.042230
0.079552
0.092204
0.076217
0.061050
0.107704
0.082943
0.016750
0.017093
0.055439
0.056178
0.045786
0.041010
0.046099
0.039376
0.053795
0.010716
0.052966
0.008721
0.037752
0.038214
0.069880
0.068003
0.013887
0.013623
0.009569
0.027687
0.009368
0.028223
0.028487
0.030968
0.031532
0.031391
0.057538
0.057410
0.084862
0.084520
0.076094
0.069332
0.056496
0.053130
0.054314
0.016801
0.052535
0.017471
0.015162
0.011879
0.012503
0.014589
0.046180
0.044002
0.066548
0.065083
0.043117
0.042597
0.004180
0.032941
0.007021
0.032769
0.090243
0.062509
0.089870
0.080466
0.037715
0.036171
0.032365
0.034692
0.029536
0.026453
0.035388
0.034924
0.072515
0.071041
0.012859
0.013209
0.046184
0.044309
0.067610
0.067618
0.059812
0.056084
0.059086
0.029113
0.058935
0.027013
0.029741
0.024471
0.020233
0.030231
0.019734
0.033043
0.042413
0.043884
0.036385
0.064209
0.007782
0.045178
0.046729
0.048106
0.053201
0.041192
0.053278
0.046342
0.037292
0.045590
0.046118
0.044392
0.080503
0.079240
0.006740
0.038310
0.039459
0.007263
0.018793
0.025984
0.017379
0.043715
0.027453
0.037857
0.039197
0.043376
0.043163
0.027600
0.074958
0.074359
0.066360
0.065881
0.108710
0.087378
0.109111
0.094022
0.074023
0.060969
0.073724
0.064591
0.024354
0.025197
0.011206
0.009401
0.051104
0.051716
0.020762
0.019548
0.042750
0.042773
0.058531
0.058400
0.036486
0.080662
0.081071
0.077778
0.040508
0.038519
0.066022
0.045665
0.063333
0.049616
0.068113
0.066930
0.066083
0.069899
0.039282
0.037109
0.039477
0.036888
0.053146
0.054064
0.010903
0.011716
0.088563
0.090655
0.090175
0.069130
0.021642
0.024220
0.010533
0.006790
0.009865
0.028305
0.051497
0.049809
0.041318
0.028355
0.010497
0.015708
0.016428
0.016482
0.019477
0.049760
0.041760
0.040147
0.040323
0.031225
0.049906
0.041443
0.032395
0.048941
0.047379
0.032821
0.057693
0.057605
0.061472
0.059864
0.053720
0.053874
0.056991
0.027840
0.027624
0.045946
0.046876
0.015584
0.015234
0.018610
0.018464
0.032128
0.046454
0.042458
0.040938
0.042630
0.041588
0.016823
0.042806
0.014565
0.034511
0.034837
0.066406
0.064437
0.047323
0.047525
0.025309
0.025494
0.057007
0.057550
0.056553
0.025874
0.055583
0.053281
0.018867
0.080220
0.078949
0.008188
0.007161
0.026939
0.026145
0.055186
0.008790
0.007720
0.027043
0.104416
0.070232
0.103885
0.094018
0.055030
0.017294
0.014373
0.095380
0.077928
0.095524
0.081981
0.008968
0.040355
0.040943
0.082495
0.081193
0.018355
0.048192
0.048022
0.046387
0.045315
0.037134
0.055575
0.011183
0.010467
0.067123
0.067990
0.055027
0.056443
0.054352
0.023666
0.014718
0.027248
0.066541
0.021090
0.033357
0.020848
0.041777
0.040563
0.020035
0.021146
0.059683
0.018419
0.017267
0.046059
0.047168
0.065599
0.061207
0.042361
0.063829
0.068259
0.035149
0.043454
0.033226
0.025071
0.026914
0.022707
0.038386
0.034861
0.032691
0.033344
0.078217
0.078435
0.068815
0.072910
0.068542
0.072002
0.037020
0.023959
0.057144
0.055860
0.033584
0.041049
0.034315
0.042609
0.031987
0.031734
0.031110
0.061055
0.018623
0.060843
0.058636
0.031721
0.030283
0.009115
0.025771
0.025305
0.061854
0.018999
0.018541
0.066427
0.065926
0.060050
0.064109
0.047504
0.067163
0.083093
0.075835
0.058764
0.076003
0.065920
0.055257
0.036278
0.054983
0.049239
0.034097
0.060234
0.046679
0.046498
0.078081
0.077166
0.059940
0.022804
0.020249
0.035588
0.023396
0.023952
0.044074
0.095016
0.107433
0.106305
0.089220
0.004988
0.023538
0.022270
0.030682
0.019940
0.019966
0.049167
0.059220
0.051944
0.045872
0.050415
0.037758
0.056920
0.048704
0.041553
0.057537
0.034368
0.020929
0.076719
0.013973
0.062780
0.063016
0.048823
0.077491
0.076482
0.023088
0.055806
0.056286
0.049688
0.013998
0.045894
0.075026
0.078747
0.016814
0.010961
0.050070
0.049515
0.075573
0.073757
0.004772
0.004892
0.025209
0.025132
0.024964
0.059439
0.035116
0.038255
0.032995
0.034548
0.087235
0.112186
0.097827
0.112121
0.035707
0.035115
0.023826
0.019537
0.030963
0.030112
0.054990
0.004459
0.058179
0.058583
0.038188
0.034641
0.038259
0.034682
0.066781
0.065735
0.040954
0.038381
0.020981
0.020056
0.048047
0.047479
0.045923
0.044604
0.047898
0.043826
0.005397
0.015952
0.036217
0.035236
0.019894
0.049162
0.013552
0.074004
0.071538
0.075203
0.111669
0.049434
0.109456
0.056237
0.041521
0.040935
0.023177
0.022029
0.053866
0.054338
0.048551
0.045296
0.050096
0.051557
0.029940
0.011481
0.049038
0.013520
0.030505
0.025823
0.036104
0.025079
0.049357
0.049955
0.071224
0.070531
0.048669
0.098801
0.089087
0.101036
0.081984
0.055366
0.051878
0.139445
0.142165
0.094060
0.050038
0.054613
0.047620
0.045291
0.049476
0.063698
0.073113
0.081821
0.101734
0.030421
0.083219
0.035764
0.060333
0.084821
0.095631
0.061269
0.072689
