# vtk DataFile Version 2.0
Unstructured Grid Example
ASCII
DATASET UNSTRUCTURED_GRID
POINTS 1221 float
-0.000319 -0.000399 0.011155 
0.999372 0.000565 -0.015239 
1.000439 1.000367 0.011681 
0.000632 0.999459 -0.014606 
0.000320 0.000406 0.061156 
1.000622 -0.000602 0.034762 
0.999551 0.999636 0.061680 
-0.000594 1.000549 0.035394 
0.000317 0.050408 0.060333 
0.000291 0.100432 0.059468 
0.000278 0.150460 0.058544 
0.000249 0.200439 0.057559 
0.000180 0.250485 0.056542 
0.000164 0.300513 0.055487 
0.000160 0.350572 0.054370 
0.000085 0.400655 0.053066 
0.000003 0.450719 0.051544 
-0.000025 0.500722 0.049947 
-0.000116 0.550730 0.048306 
-0.000157 0.600760 0.046658 
-0.000284 0.650771 0.044881 
-0.000385 0.700742 0.043221 
-0.000470 0.750676 0.041636 
-0.000497 0.800633 0.040198 
-0.000562 0.850563 0.038819 
-0.000581 0.900560 0.037633 
-0.000595 0.950554 0.036501 
-0.000307 0.049597 0.010332 
-0.000292 0.099575 0.009467 
-0.000258 0.149551 0.008548 
-0.000229 0.199532 0.007546 
-0.000188 0.249529 0.006544 
-0.000177 0.299503 0.005504 
-0.000151 0.349457 0.004371 
-0.000080 0.399372 0.003057 
0.000004 0.449352 0.001542 
0.000044 0.499284 -0.000052 
0.000131 0.549279 -0.001697 
0.000154 0.599248 -0.003325 
0.000287 0.649229 -0.005084 
0.000350 0.699266 -0.006779 
0.000450 0.749302 -0.008348 
0.000519 0.799373 -0.009828 
0.000572 0.849406 -0.011153 
0.000591 0.899442 -0.012357 
0.000622 0.949459 -0.013498 
-0.000000 0.000003 0.036153 
0.000019 1.000005 0.010397 
0.050319 0.000399 0.060499 
0.100351 0.000378 0.059777 
0.150396 0.000344 0.058944 
0.200439 0.000275 0.058025 
0.250471 0.000274 0.057082 
0.300552 0.000264 0.056019 
0.350597 0.000155 0.054762 
0.400712 0.000117 0.053293 
0.450746 0.000069 0.051738 
0.500755 0.000013 0.050085 
0.550749 -0.000095 0.048409 
0.600735 -0.000168 0.046785 
0.650769 -0.000279 0.045045 
0.700757 -0.000393 0.043301 
0.750747 -0.000479 0.041676 
0.800691 -0.000520 0.040107 
0.850656 -0.000536 0.038661 
0.900633 -0.000561 0.037325 
0.950622 -0.000588 0.036024 
0.049674 -0.000400 0.010499 
0.099632 -0.000367 0.009770 
0.149580 -0.000296 0.008969 
0.199573 -0.000274 0.008025 
0.249562 -0.000260 0.007082 
0.299461 -0.000225 0.006041 
0.349368 -0.000175 0.004739 
0.399281 -0.000101 0.003309 
0.449248 -0.000043 0.001731 
0.499230 0.000020 0.000094 
0.549258 0.000077 -0.001589 
0.599274 0.000135 -0.003222 
0.649224 0.000275 -0.004919 
0.699224 0.000349 -0.006693 
0.749262 0.000440 -0.008364 
0.799296 0.000508 -0.009892 
0.849344 0.000549 -0.011338 
0.899356 0.000556 -0.012677 
0.949368 0.000569 -0.013971 
0.999997 -0.000018 0.009764 
1.000621 0.049400 0.035942 
1.000605 0.099380 0.037162 
1.000567 0.149345 0.038421 
1.000542 0.199315 0.039809 
1.000530 0.249295 0.041230 
1.000443 0.299280 0.042733 
1.000379 0.349179 0.044460 
1.000290 0.399128 0.046314 
1.000184 0.449124 0.048260 
1.000085 0.499159 0.050160 
1.000024 0.549240 0.051949 
0.999886 0.599319 0.053586 
0.999769 0.649411 0.055109 
0.999687 0.699556 0.056297 
0.999628 0.749550 0.057388 
0.999607 0.799573 0.058417 
0.999587 0.849610 0.059351 
0.999564 0.899628 0.060169 
0.999556 0.949636 0.060937 
0.999385 0.050566 -0.014053 
0.999405 0.100587 -0.012837 
0.999443 0.150605 -0.011561 
0.999487 0.200643 -0.010188 
0.999505 0.250677 -0.008767 
0.999590 0.300744 -0.007264 
0.999635 0.350769 -0.005510 
0.999726 0.400873 -0.003691 
0.999813 0.450868 -0.001736 
0.999926 0.500826 0.000155 
0.999971 0.550739 0.001951 
1.000103 0.600679 0.003592 
1.000221 0.650579 0.005066 
1.000307 0.700500 0.006306 
1.000349 0.750492 0.007377 
1.000383 0.800462 0.008405 
1.000416 0.850414 0.009349 
1.000427 0.900378 0.010173 
1.000435 0.950371 0.010935 
0.999995 1.000002 0.036678 
0.949553 0.999639 0.060779 
0.899540 0.999668 0.059842 
0.849517 0.999692 0.058884 
0.799502 0.999718 0.057868 
0.749471 0.999739 0.056794 
0.699434 0.999774 0.055641 
0.649409 0.999802 0.054329 
0.599312 0.999943 0.052894 
0.549293 0.999960 0.051311 
0.499305 1.000090 0.049672 
0.449325 1.000165 0.048130 
0.399300 1.000232 0.046644 
0.349305 1.000294 0.045082 
0.299326 1.000352 0.043570 
0.249327 1.000423 0.042067 
0.199350 1.000470 0.040604 
0.149383 1.000484 0.039195 
0.099405 1.000510 0.037906 
0.049404 1.000540 0.036638 
0.950440 1.000365 0.010776 
0.900457 1.000354 0.009840 
0.850460 1.000328 0.008892 
0.800490 1.000304 0.007853 
0.750520 1.000283 0.006794 
0.700568 1.000247 0.005657 
0.650622 1.000226 0.004336 
0.600657 1.000071 0.002882 
0.550715 1.000001 0.001301 
0.500705 0.999880 -0.000314 
0.450629 0.999809 -0.001859 
0.400671 0.999746 -0.003371 
0.350687 0.999710 -0.004918 
0.300705 0.999643 -0.006421 
0.250696 0.999572 -0.007931 
0.200668 0.999508 -0.009433 
0.150645 0.999486 -0.010804 
0.100642 0.999471 -0.012093 
0.050631 0.999460 -0.013363 
0.024474 0.999870 0.004885 
0.019556 1.000229 0.021301 
0.975797 1.000091 0.030132 
0.980019 0.999849 0.046741 
0.481670 0.999975 0.024099 
0.774994 1.000012 0.032339 
0.674979 1.000008 0.030010 
0.525750 0.999976 0.025541 
0.724993 1.000016 0.031253 
0.624973 1.000053 0.028625 
0.075019 0.999997 0.012264 
0.225002 0.999992 0.016306 
0.575080 0.999980 0.027078 
0.175018 0.999989 0.014878 
0.125023 0.999985 0.013544 
0.875002 1.000012 0.034370 
0.824986 1.000015 0.033384 
0.375011 0.999989 0.020876 
0.918334 1.000010 0.035195 
0.274998 1.000007 0.017801 
0.325005 1.000003 0.019328 
0.424990 0.999995 0.022379 
0.499985 0.500060 0.050729 
0.292614 0.295231 0.053240 
0.707376 0.704762 0.052961 
0.709494 0.290450 0.047553 
0.290590 0.709606 0.047384 
0.500913 0.781371 0.050302 
0.784408 0.497535 0.050628 
0.499945 0.223165 0.050741 
0.224262 0.503202 0.050397 
0.168508 0.171028 0.056356 
0.831549 0.169132 0.042859 
0.829901 0.830645 0.056300 
0.168456 0.830804 0.043063 
0.563446 0.640522 0.050745 
0.436511 0.359450 0.051509 
0.642588 0.437426 0.050080 
0.353310 0.567305 0.049876 
0.639361 0.846616 0.053237 
0.361209 0.153871 0.053538 
0.151406 0.361068 0.053410 
0.847109 0.359494 0.046861 
0.846145 0.640856 0.053636 
0.642104 0.153374 0.046994 
0.357917 0.846659 0.047070 
0.153535 0.635382 0.046855 
0.678076 0.581165 0.051336 
0.560981 0.330681 0.050295 
0.439229 0.669251 0.049727 
0.321878 0.420732 0.051458 
0.533199 0.881991 0.050968 
0.465871 0.117755 0.051148 
0.882385 0.464926 0.049559 
0.119898 0.466232 0.051146 
0.743833 0.896314 0.055595 
0.108118 0.258684 0.055549 
0.259014 0.098093 0.055885 
0.897107 0.255080 0.043381 
0.889322 0.736641 0.055638 
0.737567 0.109887 0.043956 
0.262406 0.890023 0.044212 
0.109832 0.739068 0.043847 
0.600682 0.739786 0.051837 
0.399322 0.260097 0.052335 
0.745465 0.404168 0.048969 
0.251449 0.598273 0.048684 
0.598362 0.520930 0.050645 
0.398043 0.475261 0.050805 
0.612195 0.253694 0.048773 
0.387750 0.746029 0.048568 
0.097880 0.095191 0.058410 
0.902993 0.094239 0.039413 
0.904776 0.902083 0.058577 
0.097982 0.905934 0.039854 
0.436287 0.903257 0.048475 
0.903015 0.562561 0.052329 
0.563823 0.096796 0.048439 
0.096794 0.563837 0.048382 
0.259010 0.202611 0.054738 
0.741474 0.797000 0.054500 
0.797723 0.257671 0.045396 
0.208585 0.745795 0.045447 
0.196506 0.279272 0.054526 
0.797953 0.715748 0.054221 
0.715156 0.206240 0.046105 
0.284797 0.793708 0.046128 
0.502142 0.411987 0.051043 
0.497165 0.588417 0.050356 
0.240981 0.365776 0.052740 
0.758935 0.634064 0.052684 
0.689534 0.500448 0.050515 
0.646274 0.345037 0.049251 
0.308739 0.505207 0.050447 
0.353844 0.654969 0.048957 
0.080498 0.183772 0.057139 
0.177414 0.084633 0.057433 
0.817128 0.918873 0.057245 
0.919706 0.181775 0.041082 
0.916782 0.820650 0.057526 
0.821578 0.082242 0.041213 
0.080326 0.818161 0.041366 
0.184732 0.914697 0.041797 
0.651627 0.655251 0.051778 
0.348221 0.344820 0.052228 
0.513734 0.696599 0.050414 
0.486208 0.303430 0.051136 
0.609625 0.917164 0.052857 
0.390091 0.083126 0.053190 
0.078477 0.395179 0.052973 
0.917482 0.389218 0.046924 
0.924713 0.660130 0.054644 
0.661148 0.074710 0.045604 
0.339138 0.925330 0.045713 
0.074130 0.662084 0.045408 
0.430627 0.821995 0.048864 
0.820892 0.565425 0.052123 
0.569143 0.177688 0.048984 
0.179438 0.567542 0.048774 
0.190546 0.431971 0.051843 
0.573253 0.818263 0.051789 
0.427153 0.179056 0.052159 
0.821837 0.426292 0.048863 
0.565694 0.457471 0.050648 
0.435283 0.542229 0.050304 
0.774635 0.330781 0.047266 
0.225187 0.668700 0.047026 
0.667234 0.780913 0.053188 
0.333646 0.218622 0.053558 
0.676786 0.930166 0.054518 
0.068718 0.318337 0.054664 
0.323118 0.069946 0.054894 
0.930763 0.321950 0.044632 
0.745466 0.559242 0.051558 
0.447488 0.736491 0.049537 
0.552408 0.263152 0.049962 
0.613932 0.594712 0.050969 
0.385978 0.406060 0.051412 
0.258708 0.443634 0.051341 
0.585673 0.392826 0.050290 
0.414448 0.607181 0.049817 
0.450568 0.428205 0.051144 
0.548521 0.572239 0.050577 
0.484214 0.934868 0.049538 
0.934750 0.514524 0.050874 
0.515932 0.065232 0.049707 
0.065195 0.515894 0.049666 
0.499620 0.838449 0.050270 
0.837990 0.506671 0.050858 
0.500893 0.152084 0.050397 
0.153536 0.501824 0.050320 
0.696245 0.842610 0.054218 
0.304245 0.157038 0.054579 
0.842820 0.302244 0.045477 
0.149003 0.702609 0.045300 
0.159793 0.231612 0.055550 
0.841623 0.772813 0.055595 
0.773709 0.157549 0.043964 
0.226254 0.842361 0.044146 
0.670460 0.237842 0.047515 
0.329526 0.762034 0.047400 
0.697244 0.355372 0.048725 
0.302847 0.644633 0.048535 
0.939515 0.605944 0.053565 
0.607187 0.060223 0.046985 
0.393153 0.939901 0.047049 
0.060173 0.607302 0.046878 
0.700392 0.433028 0.049667 
0.303752 0.558996 0.049747 
0.054739 0.054509 0.059605 
0.946204 0.053523 0.037383 
0.945448 0.945216 0.059924 
0.053932 0.946449 0.037915 
0.772258 0.945720 0.056694 
0.055822 0.232746 0.056448 
0.227278 0.054527 0.056924 
0.944796 0.771224 0.057058 
0.772316 0.054340 0.041982 
0.228330 0.945305 0.042391 
0.947081 0.226451 0.041642 
0.054487 0.772268 0.041988 
0.220311 0.160469 0.055791 
0.774857 0.847172 0.055612 
0.848004 0.224187 0.043654 
0.155109 0.775220 0.043916 
0.552626 0.947757 0.051396 
[...]
POINT_DATA 1221
SCALARS u float 1
LOOKUP_TABLE default
0.114901
0.157055
0.120340
0.150541
0.114915
0.157051
0.120339
0.150531
0.106460
0.097573
0.088091
0.077958
0.067532
0.056737
0.045385
0.032275
0.017521
0.007452
0.019019
0.035307
0.053348
0.070288
0.086481
0.101201
0.115349
0.127531
0.139158
0.106448
0.097561
0.088123
0.077831
0.067541
0.056899
0.045350
0.032122
0.017206
0.007403
0.019019
0.035109
0.052993
0.070255
0.086321
0.101482
0.115074
0.127427
0.139157
0.114760
0.150271
0.108165
0.100746
0.092192
0.082750
0.073086
0.062260
0.049406
0.034685
0.019476
0.007824
0.018122
0.033976
0.051676
0.069486
0.086138
0.102189
0.117006
0.130720
0.144080
0.108163
0.100675
0.092448
0.082746
0.073065
0.062451
0.049228
0.034858
0.019424
0.007987
0.018065
0.034011
0.051322
0.069428
0.086521
0.102179
0.117005
0.130745
0.144034
0.156778
0.144928
0.132407
0.119477
0.105245
0.090703
0.075279
0.057760
0.039086
0.020134
0.008851
0.021524
0.037581
0.052971
0.065035
0.076256
0.086822
0.096396
0.104808
0.112701
0.144867
0.132375
0.119265
0.105175
0.090621
0.075257
0.057372
0.039131
0.020070
0.008679
0.021466
0.037633
0.052519
0.065165
0.076162
0.086706
0.096388
0.104842
0.112680
0.120170
0.111070
0.101444
0.091606
0.081174
0.070175
0.058387
0.045009
0.030618
0.015331
0.007964
0.020533
0.035351
0.051196
0.066626
0.082035
0.097042
0.111476
0.124712
0.137741
0.111037
0.101434
0.091685
0.081021
0.070174
0.058562
0.045132
0.030427
0.015275
0.008034
0.020293
0.035468
0.051187
0.066567
0.082039
0.097437
0.111494
0.124732
0.137769
0.144121
0.145294
0.115705
0.116559
0.009274
0.075519
0.051556
0.005569
0.064349
0.037306
0.131055
0.089466
0.021389
0.104159
0.117882
0.096420
0.086274
0.042433
0.104907
0.074075
0.058370
0.026967
0.007532
0.033602
0.030785
0.025737
0.027394
0.005593
0.008080
0.008935
0.006219
0.065575
0.073916
0.065064
0.071782
0.008003
0.015631
0.002547
0.003118
0.033687
0.036710
0.035499
0.033262
0.037721
0.031593
0.030814
0.032908
0.014273
0.004561
0.003049
0.015568
0.011530
0.013579
0.008770
0.013396
0.057849
0.057304
0.060756
0.068612
0.058246
0.062627
0.059965
0.063725
0.019322
0.024270
0.011849
0.014531
0.006641
0.008722
0.013633
0.015261
0.086685
0.109262
0.088434
0.104705
0.016801
0.024748
0.017504
0.018103
0.048979
0.046541
0.047940
0.047211
0.046787
0.043658
0.040613
0.040393
0.010769
0.003838
0.028507
0.027923
0.006009
0.008802
0.005559
0.011388
0.073641
0.076666
0.074760
0.092173
0.077651
0.090803
0.089200
0.084775
0.018616
0.023108
0.005273
0.011945
0.029989
0.033387
0.031135
0.032687
0.048004
0.045852
0.044671
0.047826
0.013274
0.022363
0.012156
0.014233
0.019591
0.018988
0.022753
0.013513
0.007107
0.003413
0.028743
0.031097
0.033088
0.036860
0.046871
0.048245
0.050610
0.055887
0.016611
0.006040
0.004892
0.010259
0.014597
0.014364
0.003900
0.002352
0.011889
0.006044
0.007741
0.011515
0.007965
0.007836
0.006457
0.010880
0.007184
0.007085
0.043708
0.047302
0.047168
0.048721
0.057293
0.057803
0.062542
0.060653
0.026284
0.027327
0.014061
0.015732
0.037168
0.031820
0.031149
0.032914
0.004659
0.004864
0.098975
0.130133
0.102284
0.124629
0.069116
0.066531
0.071428
0.072855
0.082958
0.078695
0.086445
0.082848
0.059764
0.058017
0.065730
0.063054
0.015506
0.016828
0.018925
0.019395
0.044787
0.046695
0.045537
0.043985
0.010516
0.016246
0.011836
0.003817
0.024756
0.014234
0.020481
0.026684
0.024645
0.023887
0.027995
0.085368
0.088376
0.111038
0.087641
0.110489
0.090808
0.107016
0.107264
0.004487
0.009255
0.008785
0.023352
0.007273
0.009911
0.005030
0.023473
0.026548
0.021276
0.042785
0.040378
0.037322
0.038515
0.036662
0.034453
0.026941
0.030164
0.021743
0.060974
0.065236
0.066289
0.062335
0.075917
0.090605
0.076540
0.086641
0.020322
0.020009
0.008374
0.004876
0.056162
0.054639
0.058651
0.057231
0.017442
0.019466
0.029566
0.036812
0.030800
0.032695
0.029904
0.007375
0.006779
0.006434
0.008115
0.037682
0.037189
0.032276
0.031770
0.067362
0.041642
0.045460
0.046179
0.019878
0.024226
0.019181
0.019686
0.068492
0.077865
0.074774
0.006334
0.012012
0.006877
0.007164
0.040066
0.010342
0.008632
0.008978
0.004717
0.028498
0.057770
0.057342
0.061358
0.071864
0.068056
0.080396
0.077831
0.001096
0.007182
0.003683
0.015036
0.038419
0.039860
0.043101
0.046715
0.020038
0.012052
0.019710
0.076354
0.077217
0.093537
0.090146
0.065886
0.034774
0.038119
0.032858
0.034724
0.078816
0.082508
0.103544
0.081107
0.085350
0.101332
0.099877
0.096384
0.011210
0.017151
0.043752
0.008902
0.011201
0.006273
0.009724
0.002536
0.005007
0.015904
0.020816
0.013131
0.005446
0.003888
0.003377
0.006920
0.008559
0.011913
0.017728
0.014111
0.017644
0.053323
0.054826
0.055205
0.056306
0.017864
0.021990
0.044776
0.040250
0.041404
0.065586
0.078506
0.075653
0.013640
0.013793
0.005876
0.025508
0.028532
0.029440
0.029938
0.010405
0.020246
0.010230
0.011313
0.020572
0.029401
0.020953
0.022993
0.049463
0.064889
0.019086
0.021206
0.005402
0.003260
0.007397
0.001765
0.067346
0.075561
0.072193
0.013021
0.033756
0.037101
0.035375
0.003411
0.005292
0.011157
0.007972
0.009700
0.006996
0.008631
0.034891
0.037052
0.052077
0.052488
0.050857
0.011772
0.094676
0.096455
0.125054
0.097775
0.124377
0.099508
0.120130
0.119084
0.022273
0.035986
0.042847
0.022067
0.017166
0.018860
0.004366
0.002548
0.055042
0.027751
0.024341
0.007371
0.005448
0.006391
0.016095
0.009182
0.019345
0.018908
0.007903
0.015139
0.014212
0.007658
0.005195
0.002550
0.027235
0.031457
0.008059
0.049359
0.049466
0.053487
0.061610
0.025717
0.022162
0.029078
0.012962
0.009596
0.009920
0.010823
0.022909
0.023595
0.022969
0.038754
0.041483
0.068797
0.039009
0.039265
0.011821
0.007686
0.048524
0.049070
0.050297
0.048443
0.010359
0.011530
0.051928
0.050504
0.051886
0.050400
0.005424
0.007314
0.012735
0.003601
0.055823
0.051690
0.058121
0.052646
0.050179
0.053402
0.058729
0.010083
0.046586
0.043790
0.045134
0.043055
0.106534
0.143027
0.110944
0.137109
0.005023
0.004690
0.008467
0.018432
0.020856
0.023275
0.025137
0.001630
0.008329
0.031466
0.038364
0.043546
0.042215
0.082190
0.100544
0.083528
0.095520
0.029514
0.031139
0.006744
0.009700
0.055623
0.011048
0.008982
0.008357
0.010797
0.010942
0.116496
0.117202
0.150925
0.152050
0.008428
0.082871
0.081503
0.091709
0.100599
0.108696
0.097796
0.112071
0.125785
0.136810
0.065963
0.008359
0.027729
0.047516
0.028896
0.044741
0.070564
0.059118
0.150518
0.151714
0.111546
0.112163
0.005354
0.067845
0.123695
0.109607
0.137234
0.094222
0.087484
0.096518
0.077839
0.103582
0.041572
0.009916
0.055770
0.025862
0.041509
0.059808
0.077573
0.024997
0.007459
0.033524
0.030873
0.025607
0.027479
0.005475
0.008294
0.009518
0.006046
0.065687
0.074827
0.065621
0.072477
0.008469
0.015884
0.002603
0.003178
0.033480
0.036832
0.035355
0.033256
0.037260
0.031388
0.030713
0.032747
0.013973
0.015632
0.004926
0.003324
0.011580
0.013720
0.008287
0.013496
0.058185
0.057681
0.060945
0.068205
0.058561
0.062794
0.060446
0.064261
0.019867
0.023650
0.013143
0.014747
0.006453
0.008771
0.013463
0.014920
0.086566
0.109561
0.088615
0.105071
0.017147
0.024732
0.017779
0.018412
0.048902
0.046560
0.047648
0.047038
0.046656
0.043692
0.040702
0.040368
0.010794
0.003703
0.028562
0.027843
0.005404
0.005769
0.008127
0.010768
0.073508
0.076506
0.075014
0.091939
0.077749
0.090970
0.089120
0.085019
0.018670
0.005937
0.022902
0.011853
0.029697
0.033177
0.030945
0.032545
0.048008
0.045852
0.044511
0.047790
0.013245
0.022529
0.012219
0.015239
0.019460
0.019086
0.022753
0.013465
0.007110
0.003376
0.033179
0.029122
0.031142
0.036655
0.046606
0.048338
0.050637
0.055970
0.016362
0.006010
0.004800
0.010346
0.014597
0.014425
0.003776
0.002599
0.011862
0.005888
0.007889
0.012024
0.007831
0.007731
0.006453
0.010849
0.007798
0.006970
0.043636
0.047108
0.046757
0.048910
0.057634
0.057770
0.062389
0.060840
0.026678
0.027776
0.014831
0.016777
0.037049
0.031935
0.031587
0.033080
0.004280
0.003946
0.098907
0.129899
0.102134
0.124527
0.069126
0.066675
0.071373
0.072879
0.082695
0.079212
0.086069
0.082716
0.059579
0.057921
0.065441
0.063418
0.015385
0.016708
0.018981
0.019378
0.045015
0.046700
0.045394
0.044292
0.023916
0.016110
0.011717
0.003860
0.024739
0.011072
0.028869
0.026812
0.024564
0.014831
0.018307
0.085427
0.088198
0.110997
0.087553
0.110212
0.090607
0.106962
0.107115
0.008109
0.009355
0.023347
0.007634
0.010142
0.006273
0.007814
0.023335
0.026651
0.020759
0.042655
0.040409
0.037552
0.038289
0.036257
0.034367
0.030066
0.026806
0.021598
0.061078
0.065010
0.066203
0.062309
0.075883
0.090678
0.076560
0.086704
0.020488
0.020146
0.004414
0.004870
0.055961
0.054426
0.058313
0.057319
0.017434
0.019860
0.029709
0.036352
0.030615
0.032939
0.029803
0.007221
0.006757
0.037859
0.037218
0.032235
0.031704
0.067091
0.041443
0.045248
0.046248
0.019826
0.024586
0.019214
0.019885
0.068464
0.077827
0.074725
0.006473
0.012175
0.007110
0.006907
0.040179
0.010264
0.008787
0.008895
0.004654
0.028345
0.058089
0.057539
0.061391
0.071455
0.010442
0.067923
0.079990
0.077834
0.001434
0.007107
0.015117
0.002831
0.003438
0.038647
0.039939
0.042512
0.046813
0.020085
0.011661
0.019569
0.076232
0.077315
0.093743
0.090320
0.065937
0.038065
0.034822
0.033252
0.034803
0.078637
0.082679
0.103281
0.081333
0.085314
0.101137
0.099786
0.096436
0.043557
0.008869
0.019841
0.009587
0.009560
0.011554
0.007824
0.006050
0.009683
0.002701
0.004314
0.005437
0.005877
0.016281
0.020918
0.013151
0.005307
0.004038
0.003933
0.008886
0.007211
0.012241
0.014178
0.017761
0.053322
0.054560
0.054974
0.056285
0.021844
0.017915
0.044318
0.040268
0.041197
0.065647
0.078264
0.075886
0.013509
0.016883
0.008301
0.025343
0.028340
0.029505
0.030049
0.010768
0.020292
0.010027
0.011647
0.020723
0.029552
0.020770
0.023382
0.049636
0.064664
0.020700
0.022678
0.007335
0.001876
0.067500
0.075818
0.072457
0.013187
0.033583
0.036858
0.035215
0.008017
0.009894
0.007258
0.008542
0.036029
0.034574
0.037038
0.052136
0.052744
0.050919
0.016173
0.094682
0.096275
0.124979
0.097718
0.124315
0.099496
0.120151
0.119102
0.022292
0.014416
0.042669
0.021880
0.024356
0.015985
0.017889
0.011875
0.004242
0.002611
0.055301
0.006890
0.005609
0.006596
0.027713
0.005621
0.019212
0.018644
0.012652
0.024077
0.014199
0.008108
0.006173
0.005294
0.030277
0.027428
0.049597
0.049595
0.053932
0.061596
0.025729
0.022363
0.017714
0.029133
0.013234
0.009712
0.010103
0.010996
0.023167
0.023626
0.022838
0.039259
0.038436
0.041615
0.068566
0.039129
0.011836
0.007244
0.048531
0.048811
0.050148
0.048625
0.009159
0.010830
0.052112
0.050568
0.051738
0.050451
0.005190
0.006707
0.010154
0.012889
0.055773
0.051519
0.057802
0.052589
0.050128
0.053854
0.058457
0.010288
0.046495
0.043836
0.045042
0.043227
0.106537
0.142993
0.110901
0.137056
0.005006
0.004492
0.018336
0.020848
0.023584
0.025397
0.006840
0.007695
0.001811
0.008219
0.031287
0.038125
0.043591
0.041955
0.082026
0.100652
0.083579
0.095649
0.029819
0.031004
0.006675
0.009554
0.055802
0.009125
0.008037
0.010612
0.010871
0.144738
0.145876
0.110660
0.111498
0.006640
0.062016
0.093891
0.108300
0.121220
0.133181
0.072635
0.083015
0.092721
0.100852
0.050977
0.007950
0.038562
0.023690
0.043150
0.025931
0.078297
0.061413
