# vtk DataFile Version 2.0
Unstructured Grid Example
ASCII
DATASET UNSTRUCTURED_GRID
POINTS 1221 float
-0.000325 -0.000407 0.011361 
0.999361 0.000575 -0.015522 
1.000448 1.000374 0.011897 
0.000643 0.999449 -0.014877 
0.000326 0.000414 0.061362 
1.000633 -0.000613 0.034480 
0.999542 0.999629 0.061897 
-0.000605 1.000559 0.035123 
0.000323 0.050416 0.060524 
0.000297 0.100440 0.059643 
0.000283 0.150468 0.058702 
0.000253 0.200447 0.057699 
0.000183 0.250494 0.056664 
0.000167 0.300522 0.055589 
0.000162 0.350582 0.054451 
0.000086 0.400667 0.053123 
0.000003 0.450732 0.051572 
-0.000026 0.500735 0.049946 
-0.000118 0.550744 0.048275 
-0.000160 0.600774 0.046596 
-0.000289 0.650785 0.044786 
-0.000392 0.700755 0.043095 
-0.000479 0.750689 0.041481 
-0.000506 0.800644 0.040016 
-0.000572 0.850573 0.038611 
-0.000592 0.900570 0.037404 
-0.000606 0.950564 0.036251 
-0.000313 0.049590 0.010524 
-0.000298 0.099567 0.009642 
-0.000263 0.149543 0.008707 
-0.000233 0.199523 0.007686 
-0.000191 0.249521 0.006665 
-0.000180 0.299494 0.005606 
-0.000154 0.349447 0.004452 
-0.000082 0.399360 0.003113 
0.000004 0.449340 0.001570 
0.000044 0.499270 -0.000053 
0.000133 0.549266 -0.001729 
0.000156 0.599234 -0.003386 
0.000293 0.649215 -0.005178 
0.000357 0.699252 -0.006904 
0.000459 0.749289 -0.008502 
0.000528 0.799361 -0.010011 
0.000582 0.849395 -0.011359 
0.000602 0.899432 -0.012586 
0.000633 0.949449 -0.013748 
-0.000000 0.000003 0.036359 
0.000019 1.000005 0.010126 
0.050324 0.000407 0.060694 
0.100358 0.000385 0.059958 
0.150404 0.000351 0.059110 
0.200447 0.000280 0.058174 
0.250479 0.000279 0.057213 
0.300563 0.000269 0.056131 
0.350608 0.000158 0.054850 
0.400725 0.000119 0.053354 
0.450760 0.000070 0.051770 
0.500769 0.000014 0.050086 
0.550763 -0.000097 0.048379 
0.600748 -0.000171 0.046726 
0.650784 -0.000284 0.044953 
0.700771 -0.000400 0.043177 
0.750761 -0.000488 0.041522 
0.800703 -0.000530 0.039924 
0.850668 -0.000546 0.038451 
0.900645 -0.000572 0.037090 
0.950633 -0.000599 0.035765 
0.049668 -0.000407 0.010693 
0.099625 -0.000374 0.009951 
0.149572 -0.000302 0.009136 
0.199565 -0.000279 0.008174 
0.249554 -0.000265 0.007213 
0.299451 -0.000230 0.006153 
0.349356 -0.000179 0.004827 
0.399268 -0.000103 0.003370 
0.449234 -0.000044 0.001763 
0.499216 0.000021 0.000096 
0.549245 0.000079 -0.001619 
0.599261 0.000138 -0.003281 
0.649210 0.000280 -0.005010 
0.699209 0.000356 -0.006817 
0.749248 0.000448 -0.008519 
0.799283 0.000518 -0.010075 
0.849332 0.000559 -0.011549 
0.899344 0.000567 -0.012912 
0.949356 0.000579 -0.014230 
0.999997 -0.000018 0.009482 
1.000633 0.049389 0.035682 
1.000616 0.099369 0.036924 
1.000578 0.149333 0.038207 
1.000552 0.199302 0.039621 
1.000539 0.249282 0.041067 
1.000452 0.299266 0.042599 
1.000386 0.349163 0.044358 
1.000296 0.399112 0.046246 
1.000187 0.449108 0.048228 
1.000086 0.499143 0.050163 
1.000025 0.549226 0.051985 
0.999884 0.599307 0.053653 
0.999765 0.649401 0.055204 
0.999681 0.699548 0.056413 
0.999621 0.749541 0.057525 
0.999600 0.799565 0.058573 
0.999580 0.849603 0.059524 
0.999556 0.899621 0.060358 
0.999548 0.949629 0.061140 
0.999373 0.050577 -0.014314 
0.999394 0.100597 -0.013075 
0.999433 0.150616 -0.011775 
0.999478 0.200655 -0.010377 
0.999496 0.250690 -0.008929 
0.999583 0.300758 -0.007399 
0.999629 0.350784 -0.005612 
0.999721 0.400889 -0.003759 
0.999810 0.450885 -0.001769 
0.999925 0.500841 0.000158 
0.999971 0.550752 0.001987 
1.000105 0.600692 0.003659 
1.000226 0.650590 0.005160 
1.000313 0.700509 0.006422 
1.000356 0.750502 0.007514 
1.000390 0.800471 0.008561 
1.000424 0.850421 0.009522 
1.000435 0.900385 0.010361 
1.000443 0.950378 0.011138 
0.999995 1.000002 0.036895 
0.949545 0.999632 0.060978 
0.899532 0.999661 0.060025 
0.849508 0.999686 0.059049 
0.799492 0.999713 0.058014 
0.749461 0.999735 0.056920 
0.699423 0.999770 0.055746 
0.649398 0.999798 0.054410 
0.599299 0.999942 0.052948 
0.549280 0.999960 0.051335 
0.499292 1.000091 0.049666 
0.449312 1.000168 0.048095 
0.399287 1.000236 0.046582 
0.349292 1.000300 0.044991 
0.299314 1.000359 0.043451 
0.249314 1.000430 0.041920 
0.199338 1.000479 0.040429 
0.149371 1.000493 0.038995 
0.099394 1.000520 0.037682 
0.049393 1.000550 0.036391 
0.950448 1.000372 0.010975 
0.900466 1.000360 0.010023 
0.850468 1.000335 0.009057 
0.800499 1.000310 0.007998 
0.750529 1.000288 0.006920 
0.700578 1.000251 0.005762 
0.650634 1.000230 0.004416 
0.600669 1.000073 0.002936 
0.550728 1.000001 0.001325 
0.500718 0.999878 -0.000320 
0.450641 0.999805 -0.001894 
0.400683 0.999741 -0.003434 
0.350700 0.999705 -0.005009 
0.300719 0.999637 -0.006540 
0.250709 0.999564 -0.008078 
0.200680 0.999499 -0.009607 
0.150657 0.999476 -0.011004 
0.100654 0.999461 -0.012317 
0.050643 0.999450 -0.013610 
0.024477 0.999867 0.004625 
0.019552 1.000234 0.021039 
0.975799 1.000093 0.030341 
0.980016 0.999846 0.046951 
0.481670 0.999974 0.024082 
0.774994 1.000013 0.032475 
0.674979 1.000008 0.030103 
0.525751 0.999976 0.025551 
0.724993 1.000017 0.031369 
0.624972 1.000054 0.028692 
0.075019 0.999996 0.012028 
0.225002 0.999992 0.016144 
0.575080 0.999979 0.027117 
0.175019 0.999988 0.014690 
0.125024 0.999985 0.013332 
0.875002 1.000013 0.034544 
0.824986 1.000016 0.033540 
0.375012 0.999988 0.020800 
0.918334 1.000010 0.035384 
0.274998 1.000007 0.017668 
0.325005 1.000003 0.019222 
0.424990 0.999995 0.022331 
0.499984 0.500061 0.050743 
0.292619 0.295236 0.053300 
0.707371 0.704756 0.053016 
0.709502 0.290445 0.047508 
0.290584 0.709613 0.047335 
0.500904 0.781370 0.050308 
0.784407 0.497526 0.050639 
0.499954 0.223164 0.050754 
0.224262 0.503210 0.050404 
0.168513 0.171034 0.056474 
0.831559 0.169122 0.042727 
0.829894 0.830639 0.056416 
0.168446 0.830813 0.042934 
0.563443 0.640520 0.050759 
0.436514 0.359451 0.051537 
0.642590 0.437423 0.050081 
0.353309 0.567310 0.049874 
0.639352 0.846613 0.053297 
0.361217 0.153874 0.053603 
0.151408 0.361078 0.053473 
0.847115 0.359481 0.046803 
0.846142 0.640848 0.053703 
0.642115 0.153370 0.046938 
0.357907 0.846664 0.047016 
0.153530 0.635391 0.046797 
0.678072 0.581159 0.051361 
0.560987 0.330678 0.050301 
0.439227 0.669252 0.049722 
0.321881 0.420739 0.051485 
0.533188 0.881990 0.050986 
0.465882 0.117753 0.051170 
0.882387 0.464913 0.049551 
0.119898 0.466243 0.051167 
0.743824 0.896309 0.055699 
0.108121 0.258692 0.055652 
0.259021 0.098099 0.055994 
0.897116 0.255069 0.043259 
0.889316 0.736633 0.055742 
0.737577 0.109878 0.043844 
0.262396 0.890031 0.044105 
0.109824 0.739078 0.043733 
0.600676 0.739782 0.051871 
0.399328 0.260099 0.052378 
0.745469 0.404159 0.048950 
0.251445 0.598282 0.048660 
0.598361 0.520930 0.050657 
0.398044 0.475266 0.050820 
0.612203 0.253689 0.048750 
0.387744 0.746032 0.048542 
0.097885 0.095198 0.058566 
0.903004 0.094228 0.039217 
0.904768 0.902077 0.058736 
0.097971 0.905943 0.039666 
0.436277 0.903261 0.048446 
0.903013 0.562550 0.052372 
0.563835 0.096794 0.048410 
0.096792 0.563849 0.048352 
0.259016 0.202616 0.054826 
0.741467 0.796995 0.054584 
0.797733 0.257662 0.045311 
0.208577 0.745801 0.045363 
0.196511 0.279277 0.054610 
0.797949 0.715742 0.054300 
0.715166 0.206233 0.046033 
0.284786 0.793714 0.046057 
0.502144 0.411988 0.051062 
0.497164 0.588419 0.050362 
0.240983 0.365783 0.052791 
0.758931 0.634058 0.052734 
0.689533 0.500443 0.050524 
0.646280 0.345032 0.049237 
0.308738 0.505212 0.050455 
0.353840 0.654975 0.048938 
0.080503 0.183780 0.057272 
0.177420 0.084640 0.057571 
0.817120 0.918867 0.057379 
0.919716 0.181763 0.040917 
0.916774 0.820644 0.057666 
0.821589 0.082232 0.041050 
0.080316 0.818172 0.041206 
0.184721 0.914706 0.041645 
0.651622 0.655248 0.051811 
0.348224 0.344825 0.052269 
0.513729 0.696600 0.050422 
0.486213 0.303430 0.051157 
0.609614 0.917164 0.052910 
0.390101 0.083127 0.053250 
0.078478 0.395189 0.053028 
0.917489 0.389205 0.046867 
0.924708 0.660123 0.054730 
0.661160 0.074704 0.045522 
0.339126 0.925336 0.045634 
0.074125 0.662095 0.045323 
0.430616 0.821998 0.048843 
0.820890 0.565417 0.052162 
0.569153 0.177684 0.048965 
0.179435 0.567554 0.048751 
0.190549 0.431979 0.051877 
0.573245 0.818262 0.051822 
0.427161 0.179057 0.052199 
0.821840 0.426280 0.048842 
0.565698 0.457470 0.050660 
0.435283 0.542231 0.050310 
0.774641 0.330773 0.047216 
0.225181 0.668708 0.046970 
0.667228 0.780908 0.053247 
0.333652 0.218626 0.053624 
0.676775 0.930163 0.054602 
0.068722 0.318345 0.054751 
0.323126 0.069951 0.054985 
0.930771 0.321937 0.044533 
0.745462 0.559236 0.051587 
0.447481 0.736493 0.049529 
0.552416 0.263149 0.049961 
0.613929 0.594710 0.050987 
0.385978 0.406063 0.051439 
0.258710 0.443641 0.051366 
0.585677 0.392825 0.050295 
0.414446 0.607182 0.049813 
0.450567 0.428207 0.051165 
0.548519 0.572239 0.050588 
0.484204 0.934871 0.049529 
0.934751 0.514511 0.050891 
0.515945 0.065231 0.049702 
0.065193 0.515907 0.049660 
0.499610 0.838448 0.050275 
0.837991 0.506660 0.050874 
0.500903 0.152081 0.050405 
0.153536 0.501835 0.050326 
0.696237 0.842605 0.054296 
0.304251 0.157042 0.054664 
0.842828 0.302233 0.045393 
0.148997 0.702617 0.045213 
0.159797 0.231619 0.055653 
0.841617 0.772806 0.055698 
0.773718 0.157540 0.043852 
0.226244 0.842368 0.044037 
0.670469 0.237836 0.047469 
0.329517 0.762038 0.047351 
0.697250 0.355365 0.048701 
0.302843 0.644640 0.048508 
0.939513 0.605934 0.053631 
0.607199 0.060220 0.046929 
0.393141 0.939906 0.046994 
0.060170 0.607315 0.046820 
0.700395 0.433023 0.049660 
0.303750 0.559003 0.049742 
0.054745 0.054517 0.059783 
0.946215 0.053512 0.037149 
0.945440 0.945209 0.060107 
0.053921 0.946459 0.037691 
0.772249 0.945715 0.056818 
0.055825 0.232754 0.056568 
0.227285 0.054532 0.057053 
0.944789 0.771216 0.057189 
0.772329 0.054331 0.041833 
0.228318 0.945312 0.042250 
0.947092 0.226439 0.041487 
0.054478 0.772279 0.041839 
0.220317 0.160474 0.055898 
0.774849 0.847166 0.055716 
0.848014 0.224177 0.043537 
0.155100 0.775230 0.043804 
0.552616 0.947756 0.051421 
[...]
POINT_DATA 1221
SCALARS u float 1
LOOKUP_TABLE default
0.114901
0.157055
0.120340
0.150541
0.114915
0.157051
0.120339
0.150531
0.106460
0.097573
0.088091
0.077958
0.067532
0.056737
0.045385
0.032275
0.017521
0.007452
0.019019
0.035307
0.053348
0.070288
0.086481
0.101201
0.115349
0.127531
0.139158
0.106448
0.097561
0.088123
0.077831
0.067541
0.056899
0.045350
0.032122
0.017206
0.007403
0.019019
0.035109
0.052993
0.070255
0.086321
0.101482
0.115074
0.127427
0.139157
0.114760
0.150271
0.108165
0.100746
0.092192
0.082750
0.073086
0.062260
0.049406
0.034685
0.019476
0.007824
0.018122
0.033976
0.051676
0.069486
0.086138
0.102189
0.117006
0.130720
0.144080
0.108163
0.100675
0.092448
0.082746
0.073065
0.062451
0.049228
0.034858
0.019424
0.007987
0.018065
0.034011
0.051322
0.069428
0.086521
0.102179
0.117005
0.130745
0.144034
0.156778
0.144928
0.132407
0.119477
0.105245
0.090703
0.075279
0.057760
0.039086
0.020134
0.008851
0.021524
0.037581
0.052971
0.065035
0.076256
0.086822
0.096396
0.104808
0.112701
0.144867
0.132375
0.119265
0.105175
0.090621
0.075257
0.057372
0.039131
0.020070
0.008679
0.021466
0.037633
0.052519
0.065165
0.076162
0.086706
0.096388
0.104842
0.112680
0.120170
0.111070
0.101444
0.091606
0.081174
0.070175
0.058387
0.045009
0.030618
0.015331
0.007964
0.020533
0.035351
0.051196
0.066626
0.082035
0.097042
0.111476
0.124712
0.137741
0.111037
0.101434
0.091685
0.081021
0.070174
0.058562
0.045132
0.030427
0.015275
0.008034
0.020293
0.035468
0.051187
0.066567
0.082039
0.097437
0.111494
0.124732
0.137769
0.144121
0.145294
0.115705
0.116559
0.009274
0.075519
0.051556
0.005569
0.064349
0.037306
0.131055
0.089466
0.021389
0.104159
0.117882
0.096420
0.086274
0.042433
0.104907
0.074075
0.058370
0.026967
0.007532
0.033602
0.030785
0.025737
0.027394
0.005593
0.008080
0.008935
0.006219
0.065575
0.073916
0.065064
0.071782
0.008003
0.015631
0.002547
0.003118
0.033687
0.036710
0.035499
0.033262
0.037721
0.031593
0.030814
0.032908
0.014273
0.004561
0.003049
0.015568
0.011530
0.013579
0.008770
0.013396
0.057849
0.057304
0.060756
0.068612
0.058246
0.062627
0.059965
0.063725
0.019322
0.024270
0.011849
0.014531
0.006641
0.008722
0.013633
0.015261
0.086685
0.109262
0.088434
0.104705
0.016801
0.024748
0.017504
0.018103
0.048979
0.046541
0.047940
0.047211
0.046787
0.043658
0.040613
0.040393
0.010769
0.003838
0.028507
0.027923
0.006009
0.008802
0.005559
0.011388
0.073641
0.076666
0.074760
0.092173
0.077651
0.090803
0.089200
0.084775
0.018616
0.023108
0.005273
0.011945
0.029989
0.033387
0.031135
0.032687
0.048004
0.045852
0.044671
0.047826
0.013274
0.022363
0.012156
0.014233
0.019591
0.018988
0.022753
0.013513
0.007107
0.003413
0.028743
0.031097
0.033088
0.036860
0.046871
0.048245
0.050610
0.055887
0.016611
0.006040
0.004892
0.010259
0.014597
0.014364
0.003900
0.002352
0.011889
0.006044
0.007741
0.011515
0.007965
0.007836
0.006457
0.010880
0.007184
0.007085
0.043708
0.047302
0.047168
0.048721
0.057293
0.057803
0.062542
0.060653
0.026284
0.027327
0.014061
0.015732
0.037168
0.031820
0.031149
0.032914
0.004659
0.004864
0.098975
0.130133
0.102284
0.124629
0.069116
0.066531
0.071428
0.072855
0.082958
0.078695
0.086445
0.082848
0.059764
0.058017
0.065730
0.063054
0.015506
0.016828
0.018925
0.019395
0.044787
0.046695
0.045537
0.043985
0.010516
0.016246
0.011836
0.003817
0.024756
0.014234
0.020481
0.026684
0.024645
0.023887
0.027995
0.085368
0.088376
0.111038
0.087641
0.110489
0.090808
0.107016
0.107264
0.004487
0.009255
0.008785
0.023352
0.007273
0.009911
0.005030
0.023473
0.026548
0.021276
0.042785
0.040378
0.037322
0.038515
0.036662
0.034453
0.026941
0.030164
0.021743
0.060974
0.065236
0.066289
0.062335
0.075917
0.090605
0.076540
0.086641
0.020322
0.020009
0.008374
0.004876
0.056162
0.054639
0.058651
0.057231
0.017442
0.019466
0.029566
0.036812
0.030800
0.032695
0.029904
0.007375
0.006779
0.006434
0.008115
0.037682
0.037189
0.032276
0.031770
0.067362
0.041642
0.045460
0.046179
0.019878
0.024226
0.019181
0.019686
0.068492
0.077865
0.074774
0.006334
0.012012
0.006877
0.007164
0.040066
0.010342
0.008632
0.008978
0.004717
0.028498
0.057770
0.057342
0.061358
0.071864
0.068056
0.080396
0.077831
0.001096
0.007182
0.003683
0.015036
0.038419
0.039860
0.043101
0.046715
0.020038
0.012052
0.019710
0.076354
0.077217
0.093537
0.090146
0.065886
0.034774
0.038119
0.032858
0.034724
0.078816
0.082508
0.103544
0.081107
0.085350
0.101332
0.099877
0.096384
0.011210
0.017151
0.043752
0.008902
0.011201
0.006273
0.009724
0.002536
0.005007
0.015904
0.020816
0.013131
0.005446
0.003888
0.003377
0.006920
0.008559
0.011913
0.017728
0.014111
0.017644
0.053323
0.054826
0.055205
0.056306
0.017864
0.021990
0.044776
0.040250
0.041404
0.065586
0.078506
0.075653
0.013640
0.013793
0.005876
0.025508
0.028532
0.029440
0.029938
0.010405
0.020246
0.010230
0.011313
0.020572
0.029401
0.020953
0.022993
0.049463
0.064889
0.019086
0.021206
0.005402
0.003260
0.007397
0.001765
0.067346
0.075561
0.072193
0.013021
0.033756
0.037101
0.035375
0.003411
0.005292
0.011157
0.007972
0.009700
0.006996
0.008631
0.034891
0.037052
0.052077
0.052488
0.050857
0.011772
0.094676
0.096455
0.125054
0.097775
0.124377
0.099508
0.120130
0.119084
0.022273
0.035986
0.042847
0.022067
0.017166
0.018860
0.004366
0.002548
0.055042
0.027751
0.024341
0.007371
0.005448
0.006391
0.016095
0.009182
0.019345
0.018908
0.007903
0.015139
0.014212
0.007658
0.005195
0.002550
0.027235
0.031457
0.008059
0.049359
0.049466
0.053487
0.061610
0.025717
0.022162
0.029078
0.012962
0.009596
0.009920
0.010823
0.022909
0.023595
0.022969
0.038754
0.041483
0.068797
0.039009
0.039265
0.011821
0.007686
0.048524
0.049070
0.050297
0.048443
0.010359
0.011530
0.051928
0.050504
0.051886
0.050400
0.005424
0.007314
0.012735
0.003601
0.055823
0.051690
0.058121
0.052646
0.050179
0.053402
0.058729
0.010083
0.046586
0.043790
0.045134
0.043055
0.106534
0.143027
0.110944
0.137109
0.005023
0.004690
0.008467
0.018432
0.020856
0.023275
0.025137
0.001630
0.008329
0.031466
0.038364
0.043546
0.042215
0.082190
0.100544
0.083528
0.095520
0.029514
0.031139
0.006744
0.009700
0.055623
0.011048
0.008982
0.008357
0.010797
0.010942
0.116496
0.117202
0.150925
0.152050
0.008428
0.082871
0.081503
0.091709
0.100599
0.108696
0.097796
0.112071
0.125785
0.136810
0.065963
0.008359
0.027729
0.047516
0.028896
0.044741
0.070564
0.059118
0.150518
0.151714
0.111546
0.112163
0.005354
0.067845
0.123695
0.109607
0.137234
0.094222
0.087484
0.096518
0.077839
0.103582
0.041572
0.009916
0.055770
0.025862
0.041509
0.059808
0.077573
0.024997
0.007459
0.033524
0.030873
0.025607
0.027479
0.005475
0.008294
0.009518
0.006046
0.065687
0.074827
0.065621
0.072477
0.008469
0.015884
0.002603
0.003178
0.033480
0.036832
0.035355
0.033256
0.037260
0.031388
0.030713
0.032747
0.013973
0.015632
0.004926
0.003324
0.011580
0.013720
0.008287
0.013496
0.058185
0.057681
0.060945
0.068205
0.058561
0.062794
0.060446
0.064261
0.019867
0.023650
0.013143
0.014747
0.006453
0.008771
0.013463
0.014920
0.086566
0.109561
0.088615
0.105071
0.017147
0.024732
0.017779
0.018412
0.048902
0.046560
0.047648
0.047038
0.046656
0.043692
0.040702
0.040368
0.010794
0.003703
0.028562
0.027843
0.005404
0.005769
0.008127
0.010768
0.073508
0.076506
0.075014
0.091939
0.077749
0.090970
0.089120
0.085019
0.018670
0.005937
0.022902
0.011853
0.029697
0.033177
0.030945
0.032545
0.048008
0.045852
0.044511
0.047790
0.013245
0.022529
0.012219
0.015239
0.019460
0.019086
0.022753
0.013465
0.007110
0.003376
0.033179
0.029122
0.031142
0.036655
0.046606
0.048338
0.050637
0.055970
0.016362
0.006010
0.004800
0.010346
0.014597
0.014425
0.003776
0.002599
0.011862
0.005888
0.007889
0.012024
0.007831
0.007731
0.006453
0.010849
0.007798
0.006970
0.043636
0.047108
0.046757
0.048910
0.057634
0.057770
0.062389
0.060840
0.026678
0.027776
0.014831
0.016777
0.037049
0.031935
0.031587
0.033080
0.004280
0.003946
0.098907
0.129899
0.102134
0.124527
0.069126
0.066675
0.071373
0.072879
0.082695
0.079212
0.086069
0.082716
0.059579
0.057921
0.065441
0.063418
0.015385
0.016708
0.018981
0.019378
0.045015
0.046700
0.045394
0.044292
0.023916
0.016110
0.011717
0.003860
0.024739
0.011072
0.028869
0.026812
0.024564
0.014831
0.018307
0.085427
0.088198
0.110997
0.087553
0.110212
0.090607
0.106962
0.107115
0.008109
0.009355
0.023347
0.007634
0.010142
0.006273
0.007814
0.023335
0.026651
0.020759
0.042655
0.040409
0.037552
0.038289
0.036257
0.034367
0.030066
0.026806
0.021598
0.061078
0.065010
0.066203
0.062309
0.075883
0.090678
0.076560
0.086704
0.020488
0.020146
0.004414
0.004870
0.055961
0.054426
0.058313
0.057319
0.017434
0.019860
0.029709
0.036352
0.030615
0.032939
0.029803
0.007221
0.006757
0.037859
0.037218
0.032235
0.031704
0.067091
0.041443
0.045248
0.046248
0.019826
0.024586
0.019214
0.019885
0.068464
0.077827
0.074725
0.006473
0.012175
0.007110
0.006907
0.040179
0.010264
0.008787
0.008895
0.004654
0.028345
0.058089
0.057539
0.061391
0.071455
0.010442
0.067923
0.079990
0.077834
0.001434
0.007107
0.015117
0.002831
0.003438
0.038647
0.039939
0.042512
0.046813
0.020085
0.011661
0.019569
0.076232
0.077315
0.093743
0.090320
0.065937
0.038065
0.034822
0.033252
0.034803
0.078637
0.082679
0.103281
0.081333
0.085314
0.101137
0.099786
0.096436
0.043557
0.008869
0.019841
0.009587
0.009560
0.011554
0.007824
0.006050
0.009683
0.002701
0.004314
0.005437
0.005877
0.016281
0.020918
0.013151
0.005307
0.004038
0.003933
0.008886
0.007211
0.012241
0.014178
0.017761
0.053322
0.054560
0.054974
0.056285
0.021844
0.017915
0.044318
0.040268
0.041197
0.065647
0.078264
0.075886
0.013509
0.016883
0.008301
0.025343
0.028340
0.029505
0.030049
0.010768
0.020292
0.010027
0.011647
0.020723
0.029552
0.020770
0.023382
0.049636
0.064664
0.020700
0.022678
0.007335
0.001876
0.067500
0.075818
0.072457
0.013187
0.033583
0.036858
0.035215
0.008017
0.009894
0.007258
0.008542
0.036029
0.034574
0.037038
0.052136
0.052744
0.050919
0.016173
0.094682
0.096275
0.124979
0.097718
0.124315
0.099496
0.120151
0.119102
0.022292
0.014416
0.042669
0.021880
0.024356
0.015985
0.017889
0.011875
0.004242
0.002611
0.055301
0.006890
0.005609
0.006596
0.027713
0.005621
0.019212
0.018644
0.012652
0.024077
0.014199
0.008108
0.006173
0.005294
0.030277
0.027428
0.049597
0.049595
0.053932
0.061596
0.025729
0.022363
0.017714
0.029133
0.013234
0.009712
0.010103
0.010996
0.023167
0.023626
0.022838
0.039259
0.038436
0.041615
0.068566
0.039129
0.011836
0.007244
0.048531
0.048811
0.050148
0.048625
0.009159
0.010830
0.052112
0.050568
0.051738
0.050451
0.005190
0.006707
0.010154
0.012889
0.055773
0.051519
0.057802
0.052589
0.050128
0.053854
0.058457
0.010288
0.046495
0.043836
0.045042
0.043227
0.106537
0.142993
0.110901
0.137056
0.005006
0.004492
0.018336
0.020848
0.023584
0.025397
0.006840
0.007695
0.001811
0.008219
0.031287
0.038125
0.043591
0.041955
0.082026
0.100652
0.083579
0.095649
0.029819
0.031004
0.006675
0.009554
0.055802
0.009125
0.008037
0.010612
0.010871
0.144738
0.145876
0.110660
0.111498
0.006640
0.062016
0.093891
0.108300
0.121220
0.133181
0.072635
0.083015
0.092721
0.100852
0.050977
0.007950
0.038562
0.023690
0.043150
0.025931
0.078297
0.061413
