# vtk DataFile Version 2.0
Unstructured Grid Example
ASCII
DATASET UNSTRUCTURED_GRID
POINTS 749 float
0.002218 0.006187 -0.028519 
0.502508 0.005511 -0.013651 
0.197510 0.699579 0.013817 
0.698984 0.692967 0.004427 
0.096718 0.698329 0.018525 
0.095711 0.997484 0.012553 
1.605484 0.981622 -0.013919 
1.606046 0.681688 0.048246 
0.918425 0.492051 0.027333 
1.002311 0.687669 0.008979 
0.644723 0.498398 0.013493 
0.659119 0.547753 0.012496 
0.903580 0.542212 0.022244 
1.052666 0.687333 0.010819 
-0.002548 -0.005846 0.151535 
0.497136 -0.005732 0.166349 
0.202590 0.700337 0.193974 
0.701140 0.706932 0.184494 
0.103372 0.701455 0.198524 
0.104243 1.002323 0.192553 
1.594438 1.018630 0.166071 
1.594052 0.718504 0.228239 
0.911785 0.507575 0.207230 
0.997720 0.712432 0.189140 
0.641106 0.501615 0.193548 
0.655255 0.552517 0.192749 
0.896650 0.557405 0.202215 
1.047290 0.712861 0.190912 
1.597118 0.859361 0.152234 
1.602914 0.840855 0.062234 
1.599994 0.895116 0.097790 
1.600008 0.805102 0.116613 
0.301882 0.851254 0.142799 
0.298116 0.848610 0.052784 
0.300036 0.895056 0.096152 
0.300033 0.804955 0.099130 
0.127255 0.006044 -0.025122 
0.252340 0.005809 -0.021433 
0.377488 0.005723 -0.017593 
0.027195 0.093658 -0.021875 
0.052194 0.181092 -0.015108 
0.077168 0.268446 -0.008311 
0.101885 0.355479 -0.001762 
0.126097 0.442181 0.004552 
0.150197 0.528318 0.009383 
0.174086 0.614482 0.012683 
0.146834 0.698566 0.016406 
0.095951 0.847862 0.016324 
0.202884 0.997317 0.007241 
0.309994 0.996537 0.001261 
0.417090 0.995269 -0.005524 
0.524349 0.993934 -0.012468 
0.631783 0.992408 -0.019096 
0.739715 0.990384 -0.026063 
0.848091 0.988414 -0.031652 
0.956742 0.986600 -0.035229 
1.065504 0.985044 -0.036516 
1.174527 0.983781 -0.034935 
1.282680 0.982785 -0.031570 
1.390758 0.982050 -0.026635 
1.498289 0.981658 -0.020491 
1.605837 0.831568 0.017255 
0.849939 0.689445 0.005601 
0.621055 0.418290 0.011689 
0.597684 0.336508 0.008614 
0.573846 0.254196 0.003910 
0.550241 0.171705 -0.001580 
0.526408 0.088671 -0.007560 
0.782026 0.493871 0.020410 
0.985930 0.589473 0.020695 
0.953499 0.614915 0.016702 
0.782651 0.543712 0.017083 
0.678608 0.620928 0.009432 
1.145399 0.685105 0.016118 
1.238063 0.683890 0.022049 
1.330429 0.682942 0.028451 
1.422484 0.682218 0.035241 
1.514337 0.681811 0.041903 
0.122433 -0.005856 0.154901 
0.247328 -0.005754 0.158544 
0.372208 -0.005724 0.162421 
0.022532 0.081635 0.158086 
0.047623 0.169147 0.164891 
0.072772 0.256759 0.171674 
0.098089 0.344673 0.178231 
0.123872 0.432847 0.184490 
0.150086 0.521739 0.189572 
0.176060 0.610584 0.192766 
0.153249 0.701218 0.196367 
0.104063 0.851973 0.196329 
0.211403 1.002619 0.187204 
0.318566 1.003392 0.181224 
0.425802 1.004771 0.174419 
0.532788 1.005982 0.167514 
0.639652 1.007549 0.160841 
0.745976 1.009586 0.153942 
0.851849 1.011650 0.148346 
0.957513 1.013487 0.144781 
1.063046 1.015044 0.143497 
1.168325 1.016347 0.145001 
1.274464 1.017294 0.148446 
1.380699 1.017960 0.153339 
1.487390 1.018465 0.159503 
1.594199 0.868660 0.197243 
0.850168 0.710572 0.185572 
0.617050 0.414938 0.191739 
0.592853 0.330108 0.188552 
0.568913 0.245550 0.183927 
0.544928 0.161383 0.178468 
0.521011 0.077724 0.172396 
0.775909 0.505869 0.200289 
0.979332 0.610132 0.200571 
0.946740 0.634670 0.196696 
0.774654 0.555987 0.197103 
0.678633 0.629231 0.189188 
1.137903 0.715029 0.196159 
1.228659 0.716169 0.202006 
1.319599 0.717167 0.208502 
1.410895 0.717890 0.215257 
1.502417 0.718379 0.221865 
-0.000199 0.000148 0.061511 
0.499809 -0.000119 0.076355 
0.200005 0.699926 0.104095 
0.700030 0.700091 0.095125 
0.099989 0.699915 0.108526 
0.100000 0.999924 0.102536 
1.599954 1.000129 0.076108 
1.600048 0.700112 0.138177 
0.915070 0.499935 0.117205 
1.000015 0.700017 0.099132 
0.642955 0.499777 0.103322 
0.657066 0.549747 0.102653 
0.900096 0.549951 0.112413 
1.050079 0.699844 0.100997 
1.597961 0.824786 0.145692 
1.602052 0.811791 0.082067 
1.602032 0.875424 0.068731 
1.597980 0.888462 0.132371 
0.298587 0.880738 0.064763 
0.298838 0.817252 0.066979 
0.301213 0.818920 0.130631 
0.301404 0.882777 0.128405 
1.504334 0.859234 0.146162 
1.411568 0.859068 0.140105 
1.318958 0.858732 0.134314 
1.226518 0.858293 0.129427 
1.134121 0.857702 0.125404 
1.041883 0.857140 0.122882 
0.949830 0.856376 0.121850 
0.857528 0.855585 0.122249 
0.765287 0.854643 0.124249 
0.672689 0.853944 0.127103 
0.580097 0.853078 0.130986 
0.487456 0.852375 0.134884 
0.394714 0.851786 0.138879 
1.507144 0.895084 0.091868 
1.414302 0.895027 0.085946 
1.321438 0.895056 0.080428 
1.228569 0.895041 0.075991 
1.135703 0.895041 0.072527 
1.042846 0.895068 0.070490 
0.949986 0.895051 0.070171 
0.857151 0.895019 0.071421 
0.764290 0.894986 0.074159 
0.671435 0.894932 0.077848 
0.578602 0.894941 0.082404 
0.485754 0.894990 0.087171 
0.392851 0.894865 0.091866 
1.509972 0.840944 0.056161 
1.417028 0.841034 0.050112 
1.323909 0.841397 0.044338 
1.230658 0.841754 0.039465 
1.137296 0.842362 0.035395 
1.043819 0.843011 0.032907 
0.950173 0.843697 0.031865 
0.856786 0.844407 0.032333 
0.763322 0.845364 0.034201 
0.670106 0.846002 0.037129 
0.577082 0.847008 0.040965 
0.484060 0.847507 0.044856 
0.391053 0.848170 0.048873 
1.507150 0.805104 0.110446 
1.414309 0.805013 0.104069 
1.321452 0.805040 0.098012 
1.228519 0.805096 0.092561 
1.135811 0.804929 0.088018 
1.042867 0.804975 0.084963 
0.949995 0.805034 0.083153 
0.857158 0.805008 0.082784 
0.764258 0.804933 0.084276 
0.671532 0.804949 0.086382 
0.578594 0.804910 0.089358 
0.485743 0.805061 0.092584 
0.392875 0.804933 0.096025 
1.597477 0.960214 0.126362 
1.597368 0.756530 0.168625 
1.602697 0.740051 0.087993 
1.602414 0.943280 0.046635 
1.604614 0.770274 0.050840 
1.595430 0.798930 0.190774 
1.604444 0.899926 0.022989 
1.595616 0.929990 0.163565 
1.603744 0.807346 0.056226 
1.596282 0.830930 0.171172 
1.603733 0.868360 0.042431 
1.596353 0.892901 0.158234 
1.598036 0.918998 0.125354 
1.597963 0.793903 0.151504 
1.602058 0.781118 0.088965 
1.602122 0.904673 0.060508 
1.600035 0.759307 0.126044 
1.600029 0.939822 0.087768 
0.345517 0.833549 0.124405 
1.553825 0.838499 0.135694 
0.718400 0.829721 0.105588 
0.811086 0.829770 0.103312 
0.903581 0.830584 0.102459 
0.625750 0.829072 0.108354 
1.181187 0.831503 0.108790 
0.440137 0.828448 0.115758 
0.996034 0.830909 0.103146 
0.532918 0.828672 0.111983 
1.088548 0.831213 0.105248 
1.273883 0.831723 0.113582 
1.366542 0.831998 0.119150 
1.459312 0.832097 0.125204 
0.333741 0.817312 0.109779 
1.565875 0.819695 0.124045 
0.345585 0.868069 0.123030 
1.553837 0.873016 0.128462 
0.811094 0.875094 0.097953 
0.718635 0.874555 0.100734 
0.903759 0.875603 0.096457 
0.625749 0.874163 0.104591 
0.996222 0.876046 0.096292 
0.533038 0.873887 0.108834 
0.440239 0.873652 0.113313 
1.181294 0.876579 0.100729 
1.088654 0.876327 0.097769 
1.273893 0.876774 0.104875 
1.366608 0.876983 0.110206 
1.459377 0.877116 0.116026 
0.333882 0.883217 0.107228 
1.565886 0.885456 0.110298 
0.300025 0.849921 0.097928 
0.300322 0.832332 0.105756 
0.299313 0.842047 0.080215 
0.300769 0.857431 0.115637 
0.299719 0.867801 0.090410 
1.557332 0.827196 0.080181 
0.343787 0.821754 0.079765 
0.717307 0.825565 0.060461 
0.810324 0.825203 0.058323 
0.903612 0.824437 0.057360 
0.624302 0.825831 0.063478 
1.090075 0.823688 0.060373 
0.531428 0.826277 0.066969 
0.996839 0.824179 0.058246 
1.183131 0.823534 0.063760 
0.438433 0.826474 0.070653 
1.276191 0.823373 0.068633 
1.369194 0.823113 0.074157 
1.462123 0.823028 0.080203 
1.567431 0.814755 0.099767 
0.332051 0.836850 0.064020 
0.343259 0.866287 0.067496 
1.556700 0.874300 0.081272 
0.717097 0.870385 0.055723 
0.810354 0.869911 0.052966 
0.903383 0.869479 0.051443 
0.624303 0.870669 0.059444 
1.183014 0.868501 0.055754 
0.996597 0.869094 0.051294 
1.089906 0.868777 0.052776 
0.531274 0.871062 0.063821 
0.438404 0.871416 0.068258 
1.276112 0.868324 0.059982 
1.369114 0.868127 0.065196 
1.462085 0.868001 0.071028 
0.332833 0.882432 0.082987 
1.568774 0.855491 0.069616 
0.419256 0.594981 0.010393 
0.347915 0.366080 0.004070 
0.378563 0.790175 0.006670 
0.527415 0.712848 0.005858 
0.540186 0.554813 0.010991 
1.037632 0.835002 -0.011859 
0.320599 0.680074 0.011041 
0.439810 0.474048 0.009465 
0.295045 0.496924 0.008750 
0.249973 0.194637 -0.008901 
0.616818 0.828885 -0.004659 
0.262810 0.773001 0.011050 
0.429472 0.697008 0.008496 
1.178455 0.831358 -0.007575 
0.405299 0.213521 -0.003298 
1.372030 0.829116 0.002783 
0.506892 0.833686 -0.000488 
0.495244 0.634066 0.009282 
0.479613 0.345408 0.006069 
0.592080 0.631606 0.008861 
0.314210 0.588781 0.011016 
0.235764 0.365962 0.001838 
0.767034 0.823055 -0.008938 
0.548264 0.459586 0.010923 
1.102727 0.781822 -0.001730 
0.724641 0.523422 0.016106 
0.902125 0.893752 -0.020683 
0.937447 0.767559 -0.003278 
0.839369 0.520626 0.021205 
0.314919 0.883813 0.005393 
0.261859 0.639424 0.012346 
0.464593 0.528839 0.010559 
0.374400 0.512893 0.009929 
0.395081 0.882312 0.001818 
0.597323 0.539129 0.011826 
1.023343 0.755888 -0.000046 
0.625909 0.741396 0.002069 
0.994216 0.637957 0.015063 
0.176823 0.112674 -0.016574 
0.185700 0.796119 0.013476 
1.281481 0.774462 0.008036 
1.472271 0.774257 0.020229 
0.180541 0.287857 -0.004464 
0.346509 0.120743 -0.010981 
0.383627 0.647346 0.010226 
0.941279 0.562646 0.021559 
0.212671 0.453817 0.006469 
0.475193 0.754371 0.005064 
0.262963 0.707903 0.012114 
0.364363 0.442563 0.007789 
0.195427 0.893282 0.010728 
0.292083 0.296844 -0.001197 
1.103651 0.896794 -0.021171 
1.275183 0.875117 -0.011360 
0.260901 0.565209 0.010807 
1.464358 0.885924 -0.003031 
0.568081 0.902159 -0.008344 
0.460849 0.152790 -0.005538 
0.372499 0.718909 0.009145 
0.486178 0.252405 0.001377 
0.442599 0.072467 -0.011230 
0.291667 0.417750 0.005663 
0.688217 0.895430 -0.013660 
0.620285 0.584852 0.010907 
0.592626 0.486148 0.012126 
0.542475 0.384995 0.008984 
0.553164 0.775197 0.001528 
0.481266 0.577759 0.010360 
0.694938 0.783661 -0.002983 
0.422377 0.392305 0.006883 
[...]
POINT_DATA 749
SCALARS u float 1
LOOKUP_TABLE default
0.060232
0.030734
0.028907
0.017230
0.038871
0.027787
0.048769
0.106929
0.059005
0.031750
0.028227
0.026443
0.049059
0.034720
0.060033
0.031034
0.029256
0.017163
0.038865
0.027686
0.049222
0.107031
0.058544
0.032101
0.028310
0.027025
0.048683
0.035156
0.040796
0.040598
0.016033
0.054770
0.016711
0.016729
0.012662
0.018790
0.053378
0.045954
0.038416
0.046986
0.033829
0.021500
0.012463
0.013625
0.020486
0.026484
0.034513
0.034892
0.018149
0.011642
0.017428
0.029829
0.043059
0.057537
0.069478
0.077575
0.081247
0.079524
0.074484
0.066911
0.057691
0.053332
0.024591
0.024635
0.019552
0.012809
0.012133
0.019782
0.044319
0.048304
0.040794
0.038392
0.021143
0.045815
0.057035
0.069178
0.082114
0.094819
0.053303
0.046046
0.038479
0.046963
0.033703
0.021312
0.012203
0.013508
0.020813
0.026657
0.034432
0.034868
0.018049
0.011519
0.017588
0.029786
0.043148
0.057501
0.069521
0.077618
0.081294
0.079754
0.074533
0.066958
0.057880
0.053634
0.024596
0.024762
0.019441
0.013266
0.012603
0.020282
0.043909
0.047641
0.040272
0.038154
0.020818
0.046071
0.057017
0.069372
0.082228
0.094880
0.058632
0.028085
0.029008
0.010549
0.038128
0.025800
0.028591
0.099149
0.055989
0.018794
0.027421
0.026045
0.046126
0.022635
0.051148
0.051063
0.025733
0.025993
0.014034
0.018365
0.018368
0.013997
0.030368
0.022134
0.018729
0.020992
0.025535
0.029015
0.030079
0.028660
0.024189
0.018351
0.010873
0.006066
0.009583
0.003849
0.008343
0.019701
0.028831
0.035960
0.040152
0.040809
0.038235
0.032600
0.025010
0.015633
0.005822
0.003850
0.030147
0.021979
0.018477
0.020885
0.025464
0.028812
0.029984
0.028507
0.024268
0.018371
0.010783
0.006165
0.009566
0.042079
0.028954
0.016489
0.005275
0.004087
0.010367
0.014092
0.014850
0.011781
0.007450
0.001334
0.005319
0.012400
0.019796
0.080872
0.080789
0.018890
0.070477
0.070641
0.032068
0.032010
0.054933
0.055098
0.034098
0.033878
0.016415
0.063796
0.063683
0.017269
0.074179
0.003064
0.013976
0.038946
0.014983
0.019492
0.021618
0.009255
0.011403
0.007199
0.020505
0.003081
0.016836
0.009262
0.016743
0.027954
0.015778
0.045449
0.011254
0.025292
0.030421
0.024634
0.033632
0.016704
0.034147
0.008275
0.003502
0.025698
0.031351
0.018132
0.010677
0.012267
0.010584
0.017710
0.016007
0.017248
0.016691
0.015634
0.014708
0.038801
0.014533
0.015066
0.019485
0.021800
0.009075
0.016712
0.003113
0.020251
0.011402
0.007045
0.009142
0.016637
0.027867
0.045346
0.014591
0.011235
0.019062
0.024675
0.030391
0.033628
0.017062
0.025598
0.034083
0.031281
0.008323
0.003271
0.017846
0.010497
0.012100
0.010612
0.029432
0.021408
0.012494
0.016289
0.015026
0.022833
0.037422
0.023163
0.019922
0.018742
0.022296
0.018121
0.023910
0.018348
0.037084
0.013374
0.038308
0.012572
0.019635
0.014975
0.019691
0.022762
0.011795
0.026915
0.022750
0.030753
0.034856
0.049489
0.025963
0.046708
0.015548
0.025572
0.021767
0.020760
0.012422
0.024651
0.027202
0.013230
0.039278
0.036541
0.028924
0.039493
0.057197
0.015367
0.025855
0.021252
0.048713
0.015707
0.014191
0.025393
0.017251
0.024217
0.012243
0.053812
0.042870
0.022538
0.039575
0.023333
0.016465
0.019759
0.010768
0.026310
0.014481
0.033765
0.023256
0.025145
0.019569
0.012397
0.021398
0.018063
0.016098
0.027309
0.010929
0.020155
0.034569
0.016752
0.032528
0.055975
0.027714
0.036709
0.054254
0.044744
0.020431
0.022400
0.040390
0.028404
0.020995
0.017537
0.047588
0.021876
0.015837
0.022677
0.018884
0.018116
0.025876
0.019556
0.075460
0.015421
0.023833
0.012291
0.015355
0.038151
0.023154
0.050958
0.032377
0.055903
0.018066
0.021397
0.021410
0.036383
0.012240
0.011900
0.015510
0.016537
0.016048
0.011707
0.032789
0.038020
0.020771
0.039615
0.031250
0.021722
0.026058
0.014891
0.021509
0.012840
0.016384
0.014718
0.022788
0.037476
0.022905
0.019964
0.019002
0.022568
0.017482
0.023760
0.018232
0.037196
0.013807
0.038621
0.012726
0.019551
0.015004
0.019644
0.022500
0.011527
0.026836
0.022992
0.030732
0.034651
0.049511
0.026183
0.046328
0.015520
0.025485
0.021551
0.020423
0.012534
0.024407
0.027384
0.013112
0.038928
0.036654
0.029047
0.039786
0.057213
0.015025
0.026104
0.021510
0.048234
0.016008
0.014258
0.025580
0.016935
0.024364
0.012273
0.054052
0.043052
0.022476
0.039785
0.023536
0.016682
0.019951
0.011172
0.026517
0.014749
0.033860
0.023304
0.025408
0.019797
0.012379
0.021710
0.017617
0.015957
0.027325
0.011309
0.020278
0.034297
0.016989
0.032887
0.056121
0.027604
0.037074
0.054535
0.044795
0.020537
0.022320
0.040771
0.028431
0.021520
0.017427
0.047720
0.021672
0.015577
0.022380
0.018818
0.017830
0.026052
0.019776
0.075622
0.015529
0.023876
0.012220
0.015110
0.037703
0.023088
0.050545
0.032126
0.056203
0.018322
0.021457
0.021138
0.036436
0.012337
0.011744
0.015651
0.016434
0.016062
0.011700
0.033300
0.037872
0.021145
0.039593
0.031268
0.021404
0.026055
0.015248
0.013358
0.010022
0.022653
0.003052
0.020353
0.026735
0.026619
0.020931
0.037180
0.048933
0.049184
0.038712
0.050178
0.050358
0.037363
0.029429
0.028750
0.012707
0.012391
0.016937
0.016711
0.011109
0.020384
0.017765
0.022786
0.038150
0.030855
0.030833
0.037874
0.065475
0.080693
0.051744
0.030638
0.091834
0.092625
0.030843
0.008688
0.004352
0.017999
0.032643
0.046973
0.060166
0.069854
0.074935
0.075315
0.069522
0.060566
0.049179
0.038317
0.018475
0.021599
0.039305
0.047720
0.040452
0.033229
0.054168
0.038833
0.009958
0.024658
0.003381
0.024136
0.015917
0.028399
0.049986
0.050848
0.028482
0.032539
0.035861
0.032804
0.035898
0.030227
0.030160
0.036228
0.036228
0.033650
0.017120
0.022468
0.022394
0.021284
0.023963
0.021809
0.021267
0.020854
0.020783
0.021625
0.018647
0.018040
0.017932
0.018884
0.018895
0.020486
0.020321
0.024441
0.021725
0.023734
0.024144
0.020489
0.022916
0.008787
0.018232
0.016699
0.020693
0.033871
0.008242
0.007674
0.011101
0.010622
0.023712
0.026285
0.026246
0.014241
0.014340
0.005092
0.017073
0.042925
0.010626
0.006360
0.012632
0.014404
0.012169
0.029382
0.031361
0.031395
0.019906
0.023597
0.021970
0.015336
0.014735
0.021075
0.023028
0.022147
0.022238
0.022404
0.024359
0.021706
0.022276
0.022101
0.022244
0.021465
0.022001
0.017612
0.005701
0.016859
0.018617
0.019832
0.019404
0.019159
0.026509
0.014361
0.014417
0.023638
0.026288
0.029219
0.021552
0.006702
0.005626
0.014618
0.023534
0.027899
0.023941
0.022246
0.010743
0.005781
0.019830
0.016880
0.024221
0.014369
0.010926
0.026094
0.022531
0.019958
0.027974
0.070173
0.060524
0.050759
0.052196
0.033343
0.044138
0.040399
0.016925
0.011256
0.007744
0.041300
0.022966
0.022073
0.019886
0.032303
0.019665
0.019176
0.021062
0.021152
0.019123
0.016889
0.014683
0.011057
0.021554
0.024357
0.027266
0.023250
0.022274
0.018580
0.024027
0.026951
0.030016
0.025386
0.028400
0.027416
0.022194
0.025692
0.024547
0.023961
0.024444
0.023431
0.022954
0.021723
0.019889
0.023312
0.024856
0.022351
0.022061
0.007384
0.054764
