# vtk DataFile Version 2.0
Unstructured Grid Example
ASCII
DATASET UNSTRUCTURED_GRID
POINTS 749 float
0.000217 0.000605 -0.002790 
0.500245 0.000539 -0.001335 
0.199756 0.699959 0.001351 
0.699901 0.699312 0.000433 
0.099679 0.699837 0.001812 
0.099580 0.999754 0.001228 
1.600536 0.998202 -0.001361 
1.600591 0.698209 0.004719 
0.915335 0.499222 0.002674 
1.000226 0.698794 0.000878 
0.643040 0.499843 0.001320 
0.657336 0.549780 0.001222 
0.900350 0.549238 0.002176 
1.050261 0.698761 0.001058 
-0.000249 -0.000572 0.177216 
0.499720 -0.000561 0.178665 
0.200253 0.700033 0.181367 
0.700112 0.700678 0.180440 
0.100330 0.700142 0.181812 
0.100415 1.000227 0.181228 
1.599456 1.001822 0.178638 
1.599418 0.701810 0.184718 
0.914686 0.500741 0.182663 
0.999777 0.701216 0.180894 
0.642686 0.500158 0.181325 
0.656958 0.550246 0.181247 
0.899672 0.550724 0.182173 
1.049735 0.701258 0.181067 
1.599718 0.850916 0.136686 
1.600285 0.849106 0.046686 
1.599999 0.895011 0.090762 
1.600001 0.805010 0.092603 
0.300184 0.850123 0.135763 
0.299816 0.849864 0.045761 
0.300003 0.895005 0.090602 
0.300003 0.804996 0.090893 
0.125221 0.000591 -0.002457 
0.250229 0.000568 -0.002096 
0.375243 0.000560 -0.001721 
0.025215 0.088102 -0.002140 
0.050215 0.175596 -0.001478 
0.075212 0.263082 -0.000813 
0.100184 0.350536 -0.000172 
0.125107 0.437958 0.000445 
0.150019 0.525325 0.000918 
0.174911 0.612694 0.001241 
0.149690 0.699860 0.001605 
0.099604 0.849791 0.001597 
0.206726 0.999738 0.000708 
0.313866 0.999661 0.000123 
0.421004 0.999537 -0.000540 
0.528158 0.999407 -0.001220 
0.635330 0.999257 -0.001868 
0.742550 0.999059 -0.002549 
0.849813 0.998867 -0.003096 
0.957104 0.998689 -0.003446 
1.064405 0.998537 -0.003572 
1.171732 0.998414 -0.003417 
1.278973 0.998316 -0.003088 
1.386208 0.998244 -0.002605 
1.493388 0.998206 -0.002004 
1.600571 0.848197 0.001688 
0.849994 0.698968 0.000548 
0.619244 0.416825 0.001143 
0.595477 0.333644 0.000843 
0.571665 0.250410 0.000382 
0.547876 0.167159 -0.000155 
0.524064 0.083855 -0.000739 
0.779232 0.499400 0.001996 
0.982835 0.598970 0.002024 
0.950342 0.624014 0.001634 
0.778970 0.549385 0.001671 
0.678575 0.624602 0.000923 
1.142032 0.698543 0.001577 
1.233796 0.698424 0.002157 
1.325531 0.698331 0.002783 
1.417236 0.698261 0.003447 
1.508921 0.698221 0.004099 
0.124749 -0.000573 0.177545 
0.249739 -0.000563 0.177901 
0.374727 -0.000560 0.178281 
0.024759 0.086926 0.177856 
0.049767 0.174428 0.178522 
0.074782 0.261938 0.179186 
0.099813 0.349479 0.179827 
0.124890 0.437045 0.180439 
0.150008 0.524681 0.180936 
0.175104 0.612313 0.181249 
0.150318 0.700119 0.181601 
0.100397 0.850193 0.181597 
0.207560 1.000256 0.180705 
0.314704 1.000332 0.180120 
0.421856 1.000467 0.179454 
0.528984 1.000585 0.178779 
0.636099 1.000738 0.178126 
0.743162 1.000938 0.177451 
0.850181 1.001139 0.176904 
0.957179 1.001319 0.176555 
1.064164 1.001471 0.176430 
1.171125 1.001599 0.176577 
1.278170 1.001692 0.176914 
1.385224 1.001757 0.177392 
1.492322 1.001806 0.177995 
1.599433 0.851825 0.181687 
0.850016 0.701034 0.180545 
0.618852 0.416498 0.181148 
0.595005 0.333018 0.180837 
0.571183 0.249565 0.180384 
0.547356 0.166150 0.179850 
0.523536 0.082785 0.179256 
0.778633 0.500574 0.181985 
0.982190 0.600991 0.182012 
0.949681 0.625946 0.181633 
0.778188 0.550586 0.181673 
0.678577 0.625414 0.180899 
1.141299 0.701470 0.181581 
1.232876 0.701582 0.182152 
1.324472 0.701679 0.182788 
1.416102 0.701750 0.183449 
1.507755 0.701798 0.184095 
-0.000020 0.000015 0.087213 
0.499981 -0.000012 0.088665 
0.200000 0.699993 0.091379 
0.700003 0.700009 0.090501 
0.099999 0.699992 0.091812 
0.100000 0.999993 0.091226 
1.599995 1.000013 0.088641 
1.600005 0.700011 0.094712 
0.915007 0.499994 0.092661 
1.000001 0.700002 0.090893 
0.642867 0.499978 0.091303 
0.657135 0.549975 0.091238 
0.900009 0.549995 0.092192 
1.050008 0.699985 0.091076 
1.599801 0.818826 0.124155 
1.600201 0.817555 0.060517 
1.600199 0.881194 0.059212 
1.599802 0.882469 0.122852 
0.299862 0.881714 0.058824 
0.299886 0.818089 0.059041 
0.300119 0.818253 0.122682 
0.300137 0.881913 0.122464 
1.506868 0.850903 0.136092 
1.414020 0.850887 0.135499 
1.321187 0.850854 0.134933 
1.228371 0.850811 0.134455 
1.135558 0.850753 0.134061 
1.042762 0.850698 0.133815 
0.949983 0.850624 0.133714 
0.857181 0.850546 0.133753 
0.764384 0.850454 0.133948 
0.671552 0.850386 0.134228 
0.578721 0.850301 0.134607 
0.485885 0.850232 0.134989 
0.393039 0.850175 0.135379 
1.507143 0.895008 0.090183 
1.414287 0.895003 0.089603 
1.321429 0.895005 0.089064 
1.228571 0.895004 0.088630 
1.135713 0.895004 0.088291 
1.042856 0.895007 0.088092 
0.949999 0.895005 0.088060 
0.857144 0.895002 0.088183 
0.764286 0.894999 0.088451 
0.671429 0.894993 0.088811 
0.578574 0.894994 0.089257 
0.485718 0.894999 0.089723 
0.392856 0.894987 0.090183 
1.507420 0.849114 0.046092 
1.414554 0.849123 0.045500 
1.321671 0.849159 0.044935 
1.228776 0.849193 0.044459 
1.135869 0.849253 0.044061 
1.042951 0.849316 0.043817 
0.950017 0.849384 0.043715 
0.857108 0.849453 0.043761 
0.764191 0.849547 0.043944 
0.671299 0.849609 0.044230 
0.578426 0.849707 0.044605 
0.485552 0.849756 0.044986 
0.392681 0.849821 0.045379 
1.507144 0.805010 0.092000 
1.414288 0.805001 0.091376 
1.321431 0.805004 0.090784 
1.228566 0.805009 0.090250 
1.135724 0.804993 0.089806 
1.042858 0.804998 0.089507 
0.950000 0.805003 0.089330 
0.857144 0.805001 0.089294 
0.764283 0.804993 0.089440 
0.671439 0.804995 0.089646 
0.578574 0.804991 0.089937 
0.485717 0.805006 0.090253 
0.392859 0.804993 0.090589 
1.599753 0.952638 0.129929 
1.599743 0.749000 0.134063 
1.600264 0.747388 0.053431 
1.600236 0.950480 0.050097 
1.600451 0.783103 0.023044 
1.599553 0.785906 0.162983 
1.600435 0.912944 0.019515 
1.599571 0.916923 0.160321 
1.600366 0.817879 0.034835 
1.599636 0.820185 0.149801 
1.600365 0.879088 0.032582 
1.599643 0.882146 0.148535 
1.599808 0.913126 0.121589 
1.599801 0.788039 0.124221 
1.600201 0.786789 0.061693 
1.600208 0.910832 0.056545 
1.600003 0.759205 0.093526 
1.600003 0.939845 0.089111 
0.344531 0.832828 0.118401 
1.555405 0.833312 0.119505 
0.717910 0.827717 0.111824 
0.810751 0.827722 0.111601 
0.903572 0.827802 0.111518 
0.625073 0.827654 0.112094 
1.182049 0.827892 0.112137 
0.439369 0.827593 0.112819 
0.996390 0.827833 0.111585 
0.532219 0.827615 0.112449 
1.089214 0.827863 0.111791 
1.274891 0.827913 0.112606 
1.367729 0.827940 0.113150 
1.460577 0.827950 0.113743 
0.333383 0.817143 0.102874 
1.566579 0.817376 0.104269 
0.344537 0.867330 0.118266 
1.555406 0.867814 0.118798 
0.810751 0.872754 0.111077 
0.717933 0.872701 0.111349 
0.903590 0.872804 0.110931 
0.625073 0.872663 0.111726 
0.996408 0.872847 0.110915 
0.532230 0.872636 0.112141 
0.439379 0.872613 0.112579 
1.182060 0.872899 0.111349 
1.089224 0.872874 0.111059 
1.274892 0.872918 0.111754 
1.367735 0.872938 0.112276 
1.460583 0.872951 0.112845 
0.333397 0.882908 0.102624 
1.566581 0.883127 0.102924 
0.300002 0.849958 0.090911 
0.300031 0.832213 0.098201 
0.299933 0.842553 0.072942 
0.300075 0.857009 0.108831 
0.299973 0.867980 0.083969 
1.555748 0.832207 0.064004 
0.344361 0.822201 0.073436 
0.717803 0.827311 0.066811 
0.810676 0.827275 0.066602 
0.903575 0.827200 0.066508 
0.624932 0.827337 0.067107 
1.089363 0.827127 0.066803 
0.532073 0.827380 0.067448 
0.996469 0.827175 0.066595 
1.182239 0.827112 0.067134 
0.439202 0.827400 0.067808 
1.275116 0.827096 0.067611 
1.367988 0.827071 0.068151 
1.460852 0.827063 0.068743 
1.566732 0.816893 0.080016 
0.333218 0.837775 0.057799 
0.344310 0.867156 0.062763 
1.555686 0.877413 0.073584 
0.717783 0.872293 0.066348 
0.810679 0.872247 0.066078 
0.903553 0.872204 0.065929 
0.624932 0.872321 0.066712 
1.182228 0.872109 0.066351 
0.996445 0.872167 0.065915 
1.089346 0.872136 0.066060 
0.532058 0.872359 0.067140 
0.439200 0.872394 0.067574 
1.275109 0.872092 0.066765 
1.367980 0.872072 0.067275 
1.460848 0.872060 0.067845 
0.333294 0.882832 0.078375 
1.566863 0.861476 0.058347 
0.419547 0.595256 0.001017 
0.346329 0.362337 0.000398 
0.381254 0.792920 0.000652 
0.528859 0.716505 0.000573 
0.539640 0.556063 0.001075 
1.036243 0.847360 -0.001160 
0.322381 0.680918 0.001080 
0.438897 0.472461 0.000926 
0.294620 0.494686 0.000856 
0.247872 0.189476 -0.000871 
0.619175 0.835201 -0.000456 
0.265630 0.774592 0.001081 
0.430922 0.698966 0.000831 
1.175115 0.845725 -0.000741 
0.403192 0.208930 -0.000323 
1.367191 0.845000 0.000272 
0.509707 0.838403 -0.000048 
0.495829 0.635969 0.000908 
0.477848 0.342245 0.000594 
0.592283 0.634856 0.000867 
0.314680 0.588025 0.001078 
0.234118 0.361349 0.000180 
0.768546 0.831535 -0.000874 
0.546968 0.458766 0.001068 
1.099780 0.794884 -0.000169 
0.721845 0.527233 0.001575 
0.903081 0.904777 -0.002023 
0.936550 0.778513 -0.000321 
0.836089 0.527145 0.002074 
0.318647 0.886793 0.000528 
0.262990 0.638846 0.001208 
0.464105 0.528566 0.001033 
0.374001 0.511335 0.000971 
0.398756 0.885981 0.000178 
0.596083 0.540319 0.001157 
1.021329 0.767642 -0.000004 
0.627455 0.746665 0.000202 
0.991432 0.648158 0.001473 
0.174809 0.107292 -0.001621 
0.188944 0.797682 0.001318 
1.276950 0.789516 0.000786 
1.466945 0.790605 0.001979 
0.178609 0.282814 -0.000437 
0.344409 0.115653 -0.001074 
0.384612 0.648191 0.001000 
0.938112 0.570874 0.002109 
0.211888 0.450248 0.000633 
0.477480 0.757921 0.000495 
0.265000 0.708467 0.001185 
0.363264 0.439993 0.000762 
0.199165 0.895529 0.001049 
0.290166 0.291948 -0.000117 
1.101771 0.910510 -0.002071 
1.271435 0.890417 -0.001111 
0.261207 0.563641 0.001057 
1.459481 0.902347 -0.000296 
0.571751 0.908032 -0.000816 
0.458546 0.148117 -0.000542 
0.374320 0.720820 0.000894 
0.484041 0.248384 0.000135 
0.440317 0.067449 -0.001098 
0.290515 0.414163 0.000554 
0.691315 0.903021 -0.001336 
0.619607 0.587429 0.001067 
0.591279 0.486239 0.001186 
0.540694 0.382822 0.000879 
0.555377 0.779965 0.000149 
0.481168 0.578547 0.001013 
0.696347 0.790973 -0.000292 
0.420864 0.389313 0.000673 
[...]
POINT_DATA 749
SCALARS u float 1
LOOKUP_TABLE default
0.060232
0.030734
0.028907
0.017230
0.038871
0.027787
0.048769
0.106929
0.059005
0.031750
0.028227
0.026443
0.049059
0.034720
0.060033
0.031034
0.029256
0.017163
0.038865
0.027686
0.049222
0.107031
0.058544
0.032101
0.028310
0.027025
0.048683
0.035156
0.040796
0.040598
0.016033
0.054770
0.016711
0.016729
0.012662
0.018790
0.053378
0.045954
0.038416
0.046986
0.033829
0.021500
0.012463
0.013625
0.020486
0.026484
0.034513
0.034892
0.018149
0.011642
0.017428
0.029829
0.043059
0.057537
0.069478
0.077575
0.081247
0.079524
0.074484
0.066911
0.057691
0.053332
0.024591
0.024635
0.019552
0.012809
0.012133
0.019782
0.044319
0.048304
0.040794
0.038392
0.021143
0.045815
0.057035
0.069178
0.082114
0.094819
0.053303
0.046046
0.038479
0.046963
0.033703
0.021312
0.012203
0.013508
0.020813
0.026657
0.034432
0.034868
0.018049
0.011519
0.017588
0.029786
0.043148
0.057501
0.069521
0.077618
0.081294
0.079754
0.074533
0.066958
0.057880
0.053634
0.024596
0.024762
0.019441
0.013266
0.012603
0.020282
0.043909
0.047641
0.040272
0.038154
0.020818
0.046071
0.057017
0.069372
0.082228
0.094880
0.058632
0.028085
0.029008
0.010549
0.038128
0.025800
0.028591
0.099149
0.055989
0.018794
0.027421
0.026045
0.046126
0.022635
0.051148
0.051063
0.025733
0.025993
0.014034
0.018365
0.018368
0.013997
0.030368
0.022134
0.018729
0.020992
0.025535
0.029015
0.030079
0.028660
0.024189
0.018351
0.010873
0.006066
0.009583
0.003849
0.008343
0.019701
0.028831
0.035960
0.040152
0.040809
0.038235
0.032600
0.025010
0.015633
0.005822
0.003850
0.030147
0.021979
0.018477
0.020885
0.025464
0.028812
0.029984
0.028507
0.024268
0.018371
0.010783
0.006165
0.009566
0.042079
0.028954
0.016489
0.005275
0.004087
0.010367
0.014092
0.014850
0.011781
0.007450
0.001334
0.005319
0.012400
0.019796
0.080872
0.080789
0.018890
0.070477
0.070641
0.032068
0.032010
0.054933
0.055098
0.034098
0.033878
0.016415
0.063796
0.063683
0.017269
0.074179
0.003064
0.013976
0.038946
0.014983
0.019492
0.021618
0.009255
0.011403
0.007199
0.020505
0.003081
0.016836
0.009262
0.016743
0.027954
0.015778
0.045449
0.011254
0.025292
0.030421
0.024634
0.033632
0.016704
0.034147
0.008275
0.003502
0.025698
0.031351
0.018132
0.010677
0.012267
0.010584
0.017710
0.016007
0.017248
0.016691
0.015634
0.014708
0.038801
0.014533
0.015066
0.019485
0.021800
0.009075
0.016712
0.003113
0.020251
0.011402
0.007045
0.009142
0.016637
0.027867
0.045346
0.014591
0.011235
0.019062
0.024675
0.030391
0.033628
0.017062
0.025598
0.034083
0.031281
0.008323
0.003271
0.017846
0.010497
0.012100
0.010612
0.029432
0.021408
0.012494
0.016289
0.015026
0.022833
0.037422
0.023163
0.019922
0.018742
0.022296
0.018121
0.023910
0.018348
0.037084
0.013374
0.038308
0.012572
0.019635
0.014975
0.019691
0.022762
0.011795
0.026915
0.022750
0.030753
0.034856
0.049489
0.025963
0.046708
0.015548
0.025572
0.021767
0.020760
0.012422
0.024651
0.027202
0.013230
0.039278
0.036541
0.028924
0.039493
0.057197
0.015367
0.025855
0.021252
0.048713
0.015707
0.014191
0.025393
0.017251
0.024217
0.012243
0.053812
0.042870
0.022538
0.039575
0.023333
0.016465
0.019759
0.010768
0.026310
0.014481
0.033765
0.023256
0.025145
0.019569
0.012397
0.021398
0.018063
0.016098
0.027309
0.010929
0.020155
0.034569
0.016752
0.032528
0.055975
0.027714
0.036709
0.054254
0.044744
0.020431
0.022400
0.040390
0.028404
0.020995
0.017537
0.047588
0.021876
0.015837
0.022677
0.018884
0.018116
0.025876
0.019556
0.075460
0.015421
0.023833
0.012291
0.015355
0.038151
0.023154
0.050958
0.032377
0.055903
0.018066
0.021397
0.021410
0.036383
0.012240
0.011900
0.015510
0.016537
0.016048
0.011707
0.032789
0.038020
0.020771
0.039615
0.031250
0.021722
0.026058
0.014891
0.021509
0.012840
0.016384
0.014718
0.022788
0.037476
0.022905
0.019964
0.019002
0.022568
0.017482
0.023760
0.018232
0.037196
0.013807
0.038621
0.012726
0.019551
0.015004
0.019644
0.022500
0.011527
0.026836
0.022992
0.030732
0.034651
0.049511
0.026183
0.046328
0.015520
0.025485
0.021551
0.020423
0.012534
0.024407
0.027384
0.013112
0.038928
0.036654
0.029047
0.039786
0.057213
0.015025
0.026104
0.021510
0.048234
0.016008
0.014258
0.025580
0.016935
0.024364
0.012273
0.054052
0.043052
0.022476
0.039785
0.023536
0.016682
0.019951
0.011172
0.026517
0.014749
0.033860
0.023304
0.025408
0.019797
0.012379
0.021710
0.017617
0.015957
0.027325
0.011309
0.020278
0.034297
0.016989
0.032887
0.056121
0.027604
0.037074
0.054535
0.044795
0.020537
0.022320
0.040771
0.028431
0.021520
0.017427
0.047720
0.021672
0.015577
0.022380
0.018818
0.017830
0.026052
0.019776
0.075622
0.015529
0.023876
0.012220
0.015110
0.037703
0.023088
0.050545
0.032126
0.056203
0.018322
0.021457
0.021138
0.036436
0.012337
0.011744
0.015651
0.016434
0.016062
0.011700
0.033300
0.037872
0.021145
0.039593
0.031268
0.021404
0.026055
0.015248
0.013358
0.010022
0.022653
0.003052
0.020353
0.026735
0.026619
0.020931
0.037180
0.048933
0.049184
0.038712
0.050178
0.050358
0.037363
0.029429
0.028750
0.012707
0.012391
0.016937
0.016711
0.011109
0.020384
0.017765
0.022786
0.038150
0.030855
0.030833
0.037874
0.065475
0.080693
0.051744
0.030638
0.091834
0.092625
0.030843
0.008688
0.004352
0.017999
0.032643
0.046973
0.060166
0.069854
0.074935
0.075315
0.069522
0.060566
0.049179
0.038317
0.018475
0.021599
0.039305
0.047720
0.040452
0.033229
0.054168
0.038833
0.009958
0.024658
0.003381
0.024136
0.015917
0.028399
0.049986
0.050848
0.028482
0.032539
0.035861
0.032804
0.035898
0.030227
0.030160
0.036228
0.036228
0.033650
0.017120
0.022468
0.022394
0.021284
0.023963
0.021809
0.021267
0.020854
0.020783
0.021625
0.018647
0.018040
0.017932
0.018884
0.018895
0.020486
0.020321
0.024441
0.021725
0.023734
0.024144
0.020489
0.022916
0.008787
0.018232
0.016699
0.020693
0.033871
0.008242
0.007674
0.011101
0.010622
0.023712
0.026285
0.026246
0.014241
0.014340
0.005092
0.017073
0.042925
0.010626
0.006360
0.012632
0.014404
0.012169
0.029382
0.031361
0.031395
0.019906
0.023597
0.021970
0.015336
0.014735
0.021075
0.023028
0.022147
0.022238
0.022404
0.024359
0.021706
0.022276
0.022101
0.022244
0.021465
0.022001
0.017612
0.005701
0.016859
0.018617
0.019832
0.019404
0.019159
0.026509
0.014361
0.014417
0.023638
0.026288
0.029219
0.021552
0.006702
0.005626
0.014618
0.023534
0.027899
0.023941
0.022246
0.010743
0.005781
0.019830
0.016880
0.024221
0.014369
0.010926
0.026094
0.022531
0.019958
0.027974
0.070173
0.060524
0.050759
0.052196
0.033343
0.044138
0.040399
0.016925
0.011256
0.007744
0.041300
0.022966
0.022073
0.019886
0.032303
0.019665
0.019176
0.021062
0.021152
0.019123
0.016889
0.014683
0.011057
0.021554
0.024357
0.027266
0.023250
0.022274
0.018580
0.024027
0.026951
0.030016
0.025386
0.028400
0.027416
0.022194
0.025692
0.024547
0.023961
0.024444
0.023431
0.022954
0.021723
0.019889
0.023312
0.024856
0.022351
0.022061
0.007384
0.054764
