# vtk DataFile Version 2.0
Unstructured Grid Example
ASCII
DATASET UNSTRUCTURED_GRID
POINTS 749 float
0.000848 0.002366 -0.010907 
0.500959 0.002108 -0.005221 
0.199048 0.699839 0.005284 
0.699611 0.697310 0.001693 
0.098745 0.699361 0.007085 
0.098360 0.999038 0.004801 
1.602097 0.992971 -0.005323 
1.602312 0.692997 0.018451 
0.916310 0.496960 0.010453 
1.000884 0.695284 0.003434 
0.643571 0.499387 0.005160 
0.657899 0.549141 0.004779 
0.901369 0.547021 0.008507 
1.051020 0.695155 0.004138 
-0.000974 -0.002236 0.169114 
0.498905 -0.002192 0.174779 
0.200991 0.700129 0.185344 
0.700436 0.702651 0.181719 
0.101290 0.700557 0.187084 
0.101623 1.000888 0.184801 
1.597873 1.007125 0.174673 
1.597725 0.707077 0.198449 
0.913771 0.502897 0.190414 
0.999128 0.704755 0.183495 
0.642187 0.500618 0.185181 
0.656421 0.550962 0.184876 
0.898719 0.552832 0.188496 
1.048964 0.704919 0.184173 
1.598898 0.853580 0.141591 
1.601114 0.846503 0.051591 
1.599998 0.895044 0.092979 
1.600003 0.805039 0.100178 
0.300720 0.850480 0.137983 
0.299279 0.849469 0.047977 
0.300014 0.895021 0.092353 
0.300012 0.804983 0.093492 
0.125862 0.002312 -0.009608 
0.250895 0.002222 -0.008197 
0.375951 0.002189 -0.006728 
0.025839 0.089855 -0.008366 
0.050839 0.177330 -0.005778 
0.075829 0.264774 -0.003179 
0.100721 0.352095 -0.000674 
0.125419 0.439290 0.001741 
0.150075 0.526269 0.003589 
0.174651 0.613258 0.004850 
0.148789 0.699451 0.006274 
0.098452 0.849182 0.006243 
0.205514 0.998974 0.002769 
0.312644 0.998676 0.000482 
0.419769 0.998191 -0.002113 
0.526957 0.997680 -0.004768 
0.634211 0.997096 -0.007303 
0.741656 0.996322 -0.009968 
0.849270 0.995569 -0.012105 
0.956989 0.994875 -0.013473 
1.064752 0.994280 -0.013965 
1.172614 0.993797 -0.013361 
1.280143 0.993416 -0.012074 
1.387643 0.993135 -0.010186 
1.494934 0.992985 -0.007837 
1.602232 0.842951 0.006599 
0.849977 0.695963 0.002142 
0.619815 0.417287 0.004470 
0.596174 0.334547 0.003294 
0.572353 0.251605 0.001495 
0.548622 0.168594 -0.000604 
0.524803 0.085375 -0.002891 
0.780113 0.497656 0.007806 
0.983812 0.595974 0.007915 
0.951338 0.621143 0.006388 
0.780132 0.547595 0.006533 
0.678586 0.623443 0.003607 
1.143094 0.694303 0.006164 
1.235142 0.693839 0.008433 
1.327076 0.693476 0.010881 
1.418892 0.693199 0.013478 
1.510629 0.693044 0.016026 
0.124018 -0.002239 0.170401 
0.248978 -0.002201 0.171794 
0.373932 -0.002189 0.173277 
0.024056 0.085257 0.171619 
0.049091 0.172762 0.174222 
0.074148 0.260304 0.176816 
0.099269 0.347963 0.179323 
0.124569 0.435720 0.181717 
0.150033 0.523753 0.183661 
0.175405 0.611767 0.184882 
0.151243 0.700466 0.186259 
0.101554 0.850755 0.186245 
0.208772 1.001002 0.182755 
0.315923 1.001297 0.180468 
0.423101 1.001825 0.177865 
0.530184 1.002288 0.175225 
0.637220 1.002887 0.172673 
0.744050 1.003666 0.170034 
0.850707 1.004455 0.167894 
0.957284 1.005158 0.166531 
1.063812 1.005753 0.166040 
1.170242 1.006252 0.166615 
1.277001 1.006614 0.167933 
1.383796 1.006869 0.169804 
1.490766 1.007062 0.172161 
1.597781 0.857136 0.186595 
0.850064 0.704043 0.182131 
0.618284 0.416006 0.184489 
0.594326 0.332100 0.183271 
0.570466 0.248298 0.181502 
0.546590 0.164646 0.179414 
0.522739 0.081188 0.177092 
0.777774 0.502245 0.187759 
0.981289 0.603875 0.187867 
0.948753 0.628698 0.186385 
0.777073 0.552290 0.186541 
0.678595 0.626618 0.183514 
1.140227 0.705748 0.186180 
1.231546 0.706184 0.188416 
1.322934 0.706565 0.190901 
1.414459 0.706842 0.193484 
1.506070 0.707029 0.196011 
-0.000076 0.000057 0.079105 
0.499927 -0.000046 0.084782 
0.200002 0.699972 0.095391 
0.700011 0.700035 0.091960 
0.099996 0.699968 0.097085 
0.100000 0.999971 0.094794 
1.599982 1.000049 0.084687 
1.600018 0.700043 0.108425 
0.915027 0.499975 0.100404 
1.000006 0.700007 0.093492 
0.642895 0.499915 0.095095 
0.657113 0.549903 0.094839 
0.900037 0.549981 0.098572 
1.050030 0.699940 0.094206 
1.599220 0.820706 0.130950 
1.600785 0.815737 0.067316 
1.600777 0.879374 0.062215 
1.599228 0.884360 0.125855 
0.299460 0.881406 0.060698 
0.299556 0.817825 0.061545 
0.300464 0.818463 0.125190 
0.300537 0.882186 0.124338 
1.506069 0.853531 0.139269 
1.413246 0.853468 0.136952 
1.320484 0.853339 0.134738 
1.227786 0.853171 0.132869 
1.135105 0.852946 0.131330 
1.042485 0.852731 0.130366 
0.949935 0.852438 0.129971 
0.857290 0.852136 0.130123 
0.764669 0.851776 0.130888 
0.671911 0.851508 0.131980 
0.579155 0.851177 0.133465 
0.486380 0.850908 0.134956 
0.393567 0.850683 0.136483 
1.507143 0.895032 0.090714 
1.414292 0.895010 0.088450 
1.321432 0.895021 0.086339 
1.228571 0.895016 0.084642 
1.135710 0.895016 0.083317 
1.042853 0.895026 0.082539 
0.949995 0.895019 0.082416 
0.857146 0.895007 0.082895 
0.764287 0.894995 0.083942 
0.671431 0.894974 0.085353 
0.578583 0.894978 0.087095 
0.485729 0.894996 0.088918 
0.392855 0.894948 0.090714 
1.508225 0.846537 0.049268 
1.415334 0.846571 0.046955 
1.322377 0.846710 0.044747 
1.229369 0.846847 0.042883 
1.136319 0.847079 0.041327 
1.043225 0.847327 0.040375 
0.950066 0.847590 0.039977 
0.857006 0.847861 0.040156 
0.763917 0.848227 0.040870 
0.670923 0.848471 0.041990 
0.578002 0.848856 0.043457 
0.485081 0.849046 0.044945 
0.392167 0.849300 0.046481 
1.507146 0.805040 0.097819 
1.414295 0.805005 0.095380 
1.321437 0.805015 0.093064 
1.228552 0.805037 0.090979 
1.135751 0.804973 0.089242 
1.042861 0.804990 0.088074 
0.949998 0.805013 0.087381 
0.857149 0.805003 0.087240 
0.764275 0.804974 0.087811 
0.671468 0.804980 0.088616 
0.578580 0.804965 0.089755 
0.485725 0.805023 0.090988 
0.392864 0.804974 0.092304 
1.599035 0.955028 0.128804 
1.598993 0.751375 0.144967 
1.601032 0.745073 0.064335 
1.600923 0.948208 0.049005 
1.601765 0.779055 0.031813 
1.598252 0.790015 0.171750 
1.601699 0.908837 0.020611 
1.598323 0.921046 0.161345 
1.601432 0.814556 0.041584 
1.598578 0.823575 0.156543 
1.601428 0.875703 0.035689 
1.598605 0.885539 0.151595 
1.599249 0.914979 0.122777 
1.599221 0.789889 0.132829 
1.600787 0.785000 0.070297 
1.600812 0.908889 0.057795 
1.600013 0.759237 0.103785 
1.600011 0.939838 0.088687 
0.344842 0.833055 0.120295 
1.554906 0.834949 0.124613 
0.718065 0.828350 0.109857 
0.810856 0.828368 0.108986 
0.903575 0.828680 0.108660 
0.625287 0.828101 0.110914 
1.181777 0.829031 0.111081 
0.439611 0.827862 0.113746 
0.996278 0.828804 0.108923 
0.532439 0.827948 0.112302 
1.089004 0.828920 0.109726 
1.274573 0.829115 0.112914 
1.367354 0.829220 0.115043 
1.460178 0.829258 0.117359 
0.333496 0.817196 0.105052 
1.566357 0.818108 0.110508 
0.344868 0.867563 0.119769 
1.554911 0.869455 0.121847 
0.810859 0.873492 0.106936 
0.718154 0.873286 0.108000 
0.903643 0.873687 0.106364 
0.625287 0.873136 0.109475 
0.996349 0.873856 0.106301 
0.532485 0.873030 0.111098 
0.439650 0.872941 0.112811 
1.181818 0.874060 0.107998 
1.089044 0.873964 0.106866 
1.274577 0.874135 0.109584 
1.367379 0.874214 0.111623 
1.460203 0.874265 0.113848 
0.333550 0.883006 0.104077 
1.566361 0.883862 0.105251 
0.300009 0.849946 0.093125 
0.300123 0.832251 0.100585 
0.299737 0.842393 0.075236 
0.300294 0.857142 0.110978 
0.299893 0.867924 0.086001 
1.556248 0.830626 0.069108 
0.344180 0.822060 0.075433 
0.717647 0.826760 0.064808 
0.810565 0.826621 0.063990 
0.903587 0.826328 0.063622 
0.624733 0.826862 0.065962 
1.089587 0.826042 0.064774 
0.531869 0.827032 0.067297 
0.996586 0.826230 0.063961 
1.182521 0.825983 0.066070 
0.438960 0.827108 0.068706 
1.275455 0.825922 0.067933 
1.368369 0.825822 0.070046 
1.461253 0.825790 0.072358 
1.566952 0.816218 0.086247 
0.332850 0.837483 0.059762 
0.343978 0.866882 0.064256 
1.556006 0.876430 0.076009 
0.717567 0.871691 0.062996 
0.810577 0.871510 0.061942 
0.903500 0.871344 0.061359 
0.624733 0.871800 0.064419 
1.182476 0.870970 0.063008 
0.996493 0.871198 0.061302 
1.089523 0.871076 0.061869 
0.531811 0.871950 0.066093 
0.438949 0.872085 0.067790 
1.275425 0.870903 0.064625 
1.368338 0.870827 0.066619 
1.461238 0.870779 0.068849 
0.333149 0.882705 0.079830 
1.567466 0.859588 0.061902 
0.419455 0.595170 0.003975 
0.346829 0.363518 0.001556 
0.380405 0.792054 0.002551 
0.528403 0.715351 0.002240 
0.539812 0.555669 0.004203 
1.036681 0.843461 -0.004535 
0.321819 0.680652 0.004223 
0.439185 0.472962 0.003620 
0.294754 0.495392 0.003346 
0.248534 0.191104 -0.003404 
0.618431 0.833208 -0.001782 
0.264740 0.774090 0.004226 
0.430465 0.698348 0.003249 
1.176169 0.841193 -0.002897 
0.403856 0.210378 -0.001261 
1.368718 0.839989 0.001064 
0.508819 0.836915 -0.000187 
0.495644 0.635368 0.003550 
0.478405 0.343243 0.002321 
0.592219 0.633831 0.003389 
0.314531 0.588263 0.004213 
0.234637 0.362804 0.000703 
0.768069 0.828860 -0.003418 
0.547377 0.459025 0.004177 
1.100709 0.790763 -0.000662 
0.722727 0.526030 0.006160 
0.902780 0.901299 -0.007910 
0.936833 0.775057 -0.001253 
0.837124 0.525088 0.008110 
0.317471 0.885853 0.002063 
0.262633 0.639028 0.004722 
0.464259 0.528652 0.004038 
0.374127 0.511827 0.003797 
0.397597 0.884823 0.000695 
0.596474 0.539943 0.004523 
1.021964 0.763934 -0.000017 
0.626968 0.745003 0.000791 
0.992310 0.644940 0.005761 
0.175445 0.108990 -0.006339 
0.187921 0.797189 0.005154 
1.278380 0.784767 0.003073 
1.468625 0.785447 0.007736 
0.179219 0.284405 -0.001707 
0.345072 0.117259 -0.004200 
0.384301 0.647924 0.003911 
0.939111 0.568278 0.008245 
0.212135 0.451374 0.002474 
0.476758 0.756801 0.001937 
0.264357 0.708289 0.004633 
0.363611 0.440804 0.002979 
0.197986 0.894820 0.004103 
0.290771 0.293493 -0.000458 
1.102364 0.906183 -0.008097 
1.272617 0.885590 -0.004345 
0.261111 0.564136 0.004133 
1.461020 0.897166 -0.001159 
0.570593 0.906179 -0.003191 
0.459273 0.149592 -0.002118 
0.373746 0.720217 0.003497 
0.484715 0.249652 0.000527 
0.441037 0.069032 -0.004295 
0.290879 0.415294 0.002166 
0.690338 0.900626 -0.005224 
0.619821 0.586616 0.004171 
0.591704 0.486210 0.004638 
0.541256 0.383507 0.003436 
0.554679 0.778461 0.000584 
0.481199 0.578299 0.003962 
0.695902 0.788666 -0.001141 
0.421341 0.390257 0.002632 
[...]
POINT_DATA 749
SCALARS u float 1
LOOKUP_TABLE default
0.060232
0.030734
0.028907
0.017230
0.038871
0.027787
0.048769
0.106929
0.059005
0.031750
0.028227
0.026443
0.049059
0.034720
0.060033
0.031034
0.029256
0.017163
0.038865
0.027686
0.049222
0.107031
0.058544
0.032101
0.028310
0.027025
0.048683
0.035156
0.040796
0.040598
0.016033
0.054770
0.016711
0.016729
0.012662
0.018790
0.053378
0.045954
0.038416
0.046986
0.033829
0.021500
0.012463
0.013625
0.020486
0.026484
0.034513
0.034892
0.018149
0.011642
0.017428
0.029829
0.043059
0.057537
0.069478
0.077575
0.081247
0.079524
0.074484
0.066911
0.057691
0.053332
0.024591
0.024635
0.019552
0.012809
0.012133
0.019782
0.044319
0.048304
0.040794
0.038392
0.021143
0.045815
0.057035
0.069178
0.082114
0.094819
0.053303
0.046046
0.038479
0.046963
0.033703
0.021312
0.012203
0.013508
0.020813
0.026657
0.034432
0.034868
0.018049
0.011519
0.017588
0.029786
0.043148
0.057501
0.069521
0.077618
0.081294
0.079754
0.074533
0.066958
0.057880
0.053634
0.024596
0.024762
0.019441
0.013266
0.012603
0.020282
0.043909
0.047641
0.040272
0.038154
0.020818
0.046071
0.057017
0.069372
0.082228
0.094880
0.058632
0.028085
0.029008
0.010549
0.038128
0.025800
0.028591
0.099149
0.055989
0.018794
0.027421
0.026045
0.046126
0.022635
0.051148
0.051063
0.025733
0.025993
0.014034
0.018365
0.018368
0.013997
0.030368
0.022134
0.018729
0.020992
0.025535
0.029015
0.030079
0.028660
0.024189
0.018351
0.010873
0.006066
0.009583
0.003849
0.008343
0.019701
0.028831
0.035960
0.040152
0.040809
0.038235
0.032600
0.025010
0.015633
0.005822
0.003850
0.030147
0.021979
0.018477
0.020885
0.025464
0.028812
0.029984
0.028507
0.024268
0.018371
0.010783
0.006165
0.009566
0.042079
0.028954
0.016489
0.005275
0.004087
0.010367
0.014092
0.014850
0.011781
0.007450
0.001334
0.005319
0.012400
0.019796
0.080872
0.080789
0.018890
0.070477
0.070641
0.032068
0.032010
0.054933
0.055098
0.034098
0.033878
0.016415
0.063796
0.063683
0.017269
0.074179
0.003064
0.013976
0.038946
0.014983
0.019492
0.021618
0.009255
0.011403
0.007199
0.020505
0.003081
0.016836
0.009262
0.016743
0.027954
0.015778
0.045449
0.011254
0.025292
0.030421
0.024634
0.033632
0.016704
0.034147
0.008275
0.003502
0.025698
0.031351
0.018132
0.010677
0.012267
0.010584
0.017710
0.016007
0.017248
0.016691
0.015634
0.014708
0.038801
0.014533
0.015066
0.019485
0.021800
0.009075
0.016712
0.003113
0.020251
0.011402
0.007045
0.009142
0.016637
0.027867
0.045346
0.014591
0.011235
0.019062
0.024675
0.030391
0.033628
0.017062
0.025598
0.034083
0.031281
0.008323
0.003271
0.017846
0.010497
0.012100
0.010612
0.029432
0.021408
0.012494
0.016289
0.015026
0.022833
0.037422
0.023163
0.019922
0.018742
0.022296
0.018121
0.023910
0.018348
0.037084
0.013374
0.038308
0.012572
0.019635
0.014975
0.019691
0.022762
0.011795
0.026915
0.022750
0.030753
0.034856
0.049489
0.025963
0.046708
0.015548
0.025572
0.021767
0.020760
0.012422
0.024651
0.027202
0.013230
0.039278
0.036541
0.028924
0.039493
0.057197
0.015367
0.025855
0.021252
0.048713
0.015707
0.014191
0.025393
0.017251
0.024217
0.012243
0.053812
0.042870
0.022538
0.039575
0.023333
0.016465
0.019759
0.010768
0.026310
0.014481
0.033765
0.023256
0.025145
0.019569
0.012397
0.021398
0.018063
0.016098
0.027309
0.010929
0.020155
0.034569
0.016752
0.032528
0.055975
0.027714
0.036709
0.054254
0.044744
0.020431
0.022400
0.040390
0.028404
0.020995
0.017537
0.047588
0.021876
0.015837
0.022677
0.018884
0.018116
0.025876
0.019556
0.075460
0.015421
0.023833
0.012291
0.015355
0.038151
0.023154
0.050958
0.032377
0.055903
0.018066
0.021397
0.021410
0.036383
0.012240
0.011900
0.015510
0.016537
0.016048
0.011707
0.032789
0.038020
0.020771
0.039615
0.031250
0.021722
0.026058
0.014891
0.021509
0.012840
0.016384
0.014718
0.022788
0.037476
0.022905
0.019964
0.019002
0.022568
0.017482
0.023760
0.018232
0.037196
0.013807
0.038621
0.012726
0.019551
0.015004
0.019644
0.022500
0.011527
0.026836
0.022992
0.030732
0.034651
0.049511
0.026183
0.046328
0.015520
0.025485
0.021551
0.020423
0.012534
0.024407
0.027384
0.013112
0.038928
0.036654
0.029047
0.039786
0.057213
0.015025
0.026104
0.021510
0.048234
0.016008
0.014258
0.025580
0.016935
0.024364
0.012273
0.054052
0.043052
0.022476
0.039785
0.023536
0.016682
0.019951
0.011172
0.026517
0.014749
0.033860
0.023304
0.025408
0.019797
0.012379
0.021710
0.017617
0.015957
0.027325
0.011309
0.020278
0.034297
0.016989
0.032887
0.056121
0.027604
0.037074
0.054535
0.044795
0.020537
0.022320
0.040771
0.028431
0.021520
0.017427
0.047720
0.021672
0.015577
0.022380
0.018818
0.017830
0.026052
0.019776
0.075622
0.015529
0.023876
0.012220
0.015110
0.037703
0.023088
0.050545
0.032126
0.056203
0.018322
0.021457
0.021138
0.036436
0.012337
0.011744
0.015651
0.016434
0.016062
0.011700
0.033300
0.037872
0.021145
0.039593
0.031268
0.021404
0.026055
0.015248
0.013358
0.010022
0.022653
0.003052
0.020353
0.026735
0.026619
0.020931
0.037180
0.048933
0.049184
0.038712
0.050178
0.050358
0.037363
0.029429
0.028750
0.012707
0.012391
0.016937
0.016711
0.011109
0.020384
0.017765
0.022786
0.038150
0.030855
0.030833
0.037874
0.065475
0.080693
0.051744
0.030638
0.091834
0.092625
0.030843
0.008688
0.004352
0.017999
0.032643
0.046973
0.060166
0.069854
0.074935
0.075315
0.069522
0.060566
0.049179
0.038317
0.018475
0.021599
0.039305
0.047720
0.040452
0.033229
0.054168
0.038833
0.009958
0.024658
0.003381
0.024136
0.015917
0.028399
0.049986
0.050848
0.028482
0.032539
0.035861
0.032804
0.035898
0.030227
0.030160
0.036228
0.036228
0.033650
0.017120
0.022468
0.022394
0.021284
0.023963
0.021809
0.021267
0.020854
0.020783
0.021625
0.018647
0.018040
0.017932
0.018884
0.018895
0.020486
0.020321
0.024441
0.021725
0.023734
0.024144
0.020489
0.022916
0.008787
0.018232
0.016699
0.020693
0.033871
0.008242
0.007674
0.011101
0.010622
0.023712
0.026285
0.026246
0.014241
0.014340
0.005092
0.017073
0.042925
0.010626
0.006360
0.012632
0.014404
0.012169
0.029382
0.031361
0.031395
0.019906
0.023597
0.021970
0.015336
0.014735
0.021075
0.023028
0.022147
0.022238
0.022404
0.024359
0.021706
0.022276
0.022101
0.022244
0.021465
0.022001
0.017612
0.005701
0.016859
0.018617
0.019832
0.019404
0.019159
0.026509
0.014361
0.014417
0.023638
0.026288
0.029219
0.021552
0.006702
0.005626
0.014618
0.023534
0.027899
0.023941
0.022246
0.010743
0.005781
0.019830
0.016880
0.024221
0.014369
0.010926
0.026094
0.022531
0.019958
0.027974
0.070173
0.060524
0.050759
0.052196
0.033343
0.044138
0.040399
0.016925
0.011256
0.007744
0.041300
0.022966
0.022073
0.019886
0.032303
0.019665
0.019176
0.021062
0.021152
0.019123
0.016889
0.014683
0.011057
0.021554
0.024357
0.027266
0.023250
0.022274
0.018580
0.024027
0.026951
0.030016
0.025386
0.028400
0.027416
0.022194
0.025692
0.024547
0.023961
0.024444
0.023431
0.022954
0.021723
0.019889
0.023312
0.024856
0.022351
0.022061
0.007384
0.054764
