# vtk DataFile Version 2.0
Unstructured Grid Example
ASCII
DATASET UNSTRUCTURED_GRID
POINTS 749 float
-0.001411 -0.003936 0.018141 
0.498405 -0.003505 0.008684 
0.201584 0.700268 -0.008789 
0.700646 0.704473 -0.002816 
0.102088 0.701063 -0.011783 
0.102728 1.001601 -0.007985 
1.596512 1.011690 0.008854 
1.596154 0.711648 -0.030689 
0.912822 0.505056 -0.017386 
0.998530 0.707844 -0.005711 
0.641670 0.501019 -0.008583 
0.655886 0.551429 -0.007948 
0.897723 0.554954 -0.014149 
1.048304 0.708058 -0.006882 
0.001621 0.003719 0.198106 
0.501822 0.003646 0.188683 
0.198352 0.699786 0.171112 
0.699275 0.695591 0.177142 
0.097855 0.699074 0.168217 
0.097301 0.998523 0.172015 
1.603538 0.988149 0.188860 
1.603783 0.688230 0.149316 
0.917045 0.495181 0.162679 
1.001450 0.692092 0.174186 
0.643971 0.498972 0.171382 
0.658344 0.548399 0.171890 
0.902131 0.545290 0.165869 
1.051724 0.691819 0.173059 
1.601833 0.844045 0.124038 
1.598146 0.855817 0.034037 
1.600004 0.894926 0.085045 
1.599995 0.804935 0.073072 
0.298803 0.849202 0.130039 
0.301198 0.850884 0.040049 
0.299977 0.894964 0.086087 
0.299979 0.805029 0.084193 
0.123566 -0.003845 0.015980 
0.248512 -0.003695 0.013633 
0.373417 -0.003640 0.011190 
0.023604 0.083583 0.013914 
0.048605 0.171125 0.009610 
0.073621 0.258718 0.005287 
0.098801 0.346515 0.001121 
0.124302 0.434523 -0.002895 
0.149875 0.522890 -0.005969 
0.175581 0.611239 -0.008067 
0.152014 0.700912 -0.010436 
0.102575 0.851360 -0.010384 
0.209852 1.001707 -0.004606 
0.317016 1.002203 -0.000802 
0.424188 1.003009 0.003514 
0.531257 1.003858 0.007931 
0.638215 1.004829 0.012147 
0.744856 1.006117 0.016578 
0.851214 1.007370 0.020134 
0.957398 1.008524 0.022409 
1.063511 1.009513 0.023227 
1.169457 1.010317 0.022222 
1.275958 1.010950 0.020081 
1.382506 1.011418 0.016942 
1.489402 1.011667 0.013034 
1.596287 0.861724 -0.010976 
0.850039 0.706714 -0.003563 
0.617771 0.415634 -0.007435 
0.593682 0.331314 -0.005479 
0.569891 0.247331 -0.002487 
0.545951 0.163462 0.001005 
0.522157 0.079938 0.004809 
0.776958 0.503899 -0.012983 
0.980318 0.606696 -0.013164 
0.947774 0.631415 -0.010624 
0.775976 0.553999 -0.010866 
0.678548 0.627590 -0.006000 
1.139293 0.709475 -0.010252 
1.230325 0.710247 -0.014025 
1.321547 0.710850 -0.018097 
1.412966 0.711311 -0.022416 
1.504515 0.711570 -0.026654 
0.126633 0.003725 0.195965 
0.251699 0.003660 0.193648 
0.376776 0.003641 0.191182 
0.026570 0.091231 0.193939 
0.051512 0.178723 0.189611 
0.076417 0.266152 0.185296 
0.101216 0.353388 0.181125 
0.125717 0.440460 0.177144 
0.149945 0.527074 0.173911 
0.174326 0.613719 0.171880 
0.147933 0.699225 0.169589 
0.097415 0.848745 0.169613 
0.204433 0.998334 0.175417 
0.311563 0.997842 0.179221 
0.418647 0.996965 0.183550 
0.525889 0.996195 0.187942 
0.633210 0.995198 0.192187 
0.740873 0.993903 0.196575 
0.848824 0.992590 0.200135 
0.956907 0.991421 0.202403 
1.065074 0.990431 0.203219 
1.173402 0.989602 0.202263 
1.281184 0.988999 0.200071 
1.388905 0.988576 0.196959 
1.496335 0.988255 0.193038 
1.603690 0.838130 0.169032 
0.849893 0.693275 0.176456 
0.620318 0.417766 0.172533 
0.596755 0.335385 0.174560 
0.573029 0.252831 0.177502 
0.549331 0.170028 0.180974 
0.525590 0.086901 0.184837 
0.780850 0.496267 0.167095 
0.984515 0.593555 0.166915 
0.952074 0.618849 0.169380 
0.781063 0.546192 0.169121 
0.678532 0.622309 0.174155 
1.144060 0.690440 0.169722 
1.236306 0.689715 0.166002 
1.328435 0.689080 0.161870 
1.420338 0.688621 0.157573 
1.512097 0.688309 0.153370 
0.000127 -0.000094 0.108121 
0.500122 0.000076 0.098679 
0.199997 0.700047 0.081034 
0.699981 0.699942 0.086740 
0.100007 0.700054 0.078216 
0.100000 1.000049 0.082026 
1.600030 0.999918 0.098836 
1.599970 0.699929 0.059355 
0.914956 0.500041 0.072695 
0.999991 0.699989 0.084191 
0.642795 0.500142 0.081526 
0.657192 0.550161 0.081952 
0.899939 0.550031 0.075743 
1.049950 0.700099 0.083005 
1.601297 0.813978 0.106635 
1.598695 0.822245 0.042986 
1.598708 0.885888 0.051469 
1.601285 0.877595 0.115108 
0.300899 0.882508 0.053993 
0.300739 0.818771 0.052583 
0.299228 0.817710 0.116215 
0.299107 0.881211 0.117631 
1.508929 0.844126 0.127900 
1.416015 0.844232 0.131753 
1.323000 0.844446 0.135436 
1.229877 0.844725 0.138545 
1.136728 0.845101 0.141104 
1.043477 0.845458 0.142708 
0.950108 0.845944 0.143365 
0.856898 0.846447 0.143111 
0.763649 0.847047 0.141839 
0.670627 0.847491 0.140023 
0.577601 0.848042 0.137553 
0.484607 0.848489 0.135074 
0.391676 0.848864 0.132533 
1.507142 0.894946 0.088812 
1.414276 0.894983 0.092579 
1.321423 0.894964 0.096089 
1.228573 0.894974 0.098911 
1.135721 0.894974 0.101115 
1.042864 0.894957 0.102410 
0.950009 0.894968 0.102613 
0.857138 0.894988 0.101818 
0.764283 0.895009 0.100076 
0.671425 0.895043 0.097730 
0.578552 0.895037 0.094832 
0.485689 0.895006 0.091799 
0.392861 0.895086 0.088813 
1.505343 0.855760 0.037901 
1.412541 0.855703 0.041748 
1.319851 0.855472 0.045421 
1.227244 0.855245 0.048521 
1.134708 0.854858 0.051110 
1.042245 0.854445 0.052692 
0.949890 0.854009 0.053355 
0.857370 0.853558 0.053057 
0.764899 0.852949 0.051869 
0.672270 0.852543 0.050007 
0.579519 0.851903 0.047567 
0.486767 0.851586 0.045091 
0.394005 0.851164 0.042536 
1.507138 0.804934 0.076994 
1.414271 0.804992 0.081051 
1.321414 0.804975 0.084904 
1.228605 0.804939 0.088371 
1.135653 0.805045 0.091261 
1.042851 0.805016 0.093204 
0.950003 0.804979 0.094355 
0.857133 0.804995 0.094590 
0.764303 0.805043 0.093641 
0.671362 0.805033 0.092301 
0.578557 0.805057 0.090408 
0.485696 0.804961 0.088356 
0.392846 0.805043 0.086168 
1.601605 0.946475 0.132831 
1.601674 0.742875 0.105948 
1.598284 0.753357 0.025316 
1.598465 0.956337 0.052914 
1.597065 0.793539 0.000433 
1.602907 0.775311 0.140375 
1.597173 0.923534 0.016688 
1.602789 0.906293 0.157683 
1.597619 0.826447 0.017435 
1.602365 0.811445 0.132417 
1.597626 0.887815 0.024569 
1.602320 0.873396 0.140646 
1.601249 0.908350 0.118526 
1.601296 0.783269 0.102028 
1.598691 0.791402 0.039508 
1.598650 0.915843 0.053321 
1.599978 0.759121 0.067073 
1.599982 0.939864 0.090203 
0.343728 0.832242 0.113517 
1.556690 0.829093 0.106336 
0.717512 0.826087 0.116896 
0.810478 0.826056 0.118344 
0.903565 0.825538 0.118887 
0.624523 0.826500 0.115137 
1.182751 0.824954 0.114860 
0.438744 0.826897 0.110428 
0.996679 0.825332 0.118450 
0.531650 0.826755 0.112829 
1.089755 0.825139 0.117113 
1.275710 0.824814 0.111812 
1.368694 0.824639 0.108270 
1.461606 0.824576 0.104419 
0.333092 0.817006 0.097256 
1.567152 0.815490 0.088182 
0.343685 0.866729 0.114391 
1.556683 0.863582 0.110936 
0.810473 0.870850 0.121754 
0.717363 0.871193 0.119984 
0.903452 0.870526 0.122705 
0.624523 0.871442 0.117531 
0.996560 0.870245 0.122810 
0.531573 0.871618 0.114832 
0.438679 0.871767 0.111983 
1.182683 0.869905 0.119988 
1.089687 0.870065 0.121870 
1.275704 0.869781 0.117350 
1.368652 0.869649 0.113959 
1.461565 0.869564 0.110257 
0.333002 0.882658 0.098879 
1.567145 0.881234 0.096926 
0.299984 0.849988 0.085203 
0.299795 0.832117 0.092056 
0.300437 0.842964 0.067026 
0.299511 0.856667 0.103295 
0.300178 0.868126 0.078730 
1.554460 0.836283 0.050844 
0.344829 0.822566 0.068288 
0.718207 0.828731 0.071977 
0.810963 0.828961 0.073337 
0.903545 0.829449 0.073950 
0.625444 0.828562 0.070058 
1.088784 0.829925 0.072033 
0.532598 0.828278 0.067838 
0.996167 0.829613 0.073386 
1.181515 0.830023 0.069879 
0.439828 0.828153 0.065495 
1.274243 0.830125 0.066779 
1.367006 0.830291 0.063266 
1.459818 0.830345 0.059420 
1.566163 0.818633 0.063950 
0.334167 0.838527 0.052739 
0.345165 0.867863 0.058913 
1.554861 0.879945 0.067329 
0.718340 0.873845 0.074991 
0.810943 0.874147 0.076745 
0.903691 0.874422 0.077714 
0.625443 0.873665 0.072624 
1.181589 0.875044 0.074971 
0.996321 0.874666 0.077809 
1.088891 0.874868 0.076866 
0.532695 0.873415 0.069840 
0.439846 0.873189 0.067018 
1.274292 0.875156 0.072282 
1.367057 0.875282 0.068965 
1.459843 0.875362 0.065256 
0.333669 0.883157 0.074624 
1.565309 0.866345 0.049179 
0.419785 0.595480 -0.006611 
0.345040 0.359293 -0.002589 
0.383444 0.795154 -0.004242 
0.530033 0.719480 -0.003726 
0.539195 0.557080 -0.006991 
1.035113 0.857413 0.007544 
0.323830 0.681604 -0.007023 
0.438155 0.471170 -0.006021 
0.294275 0.492865 -0.005566 
0.246163 0.185278 0.005662 
0.621092 0.840338 0.002963 
0.267923 0.775886 -0.007029 
0.432102 0.700559 -0.005404 
1.172398 0.857413 0.004818 
0.401477 0.205196 0.002098 
1.363255 0.857922 -0.001770 
0.511997 0.842241 0.000311 
0.496305 0.637516 -0.005904 
0.476413 0.339671 -0.003860 
0.592448 0.637500 -0.005636 
0.315061 0.587410 -0.007007 
0.232778 0.357597 -0.001169 
0.769775 0.838432 0.005686 
0.545914 0.458100 -0.006948 
1.097382 0.805510 0.001100 
0.719571 0.530332 -0.010245 
0.903859 0.913746 0.013156 
0.935821 0.787424 0.002085 
0.833421 0.532449 -0.013488 
0.321680 0.889217 -0.003431 
0.263910 0.638375 -0.007853 
0.463707 0.528345 -0.006716 
0.373676 0.510068 -0.006315 
0.401745 0.888965 -0.001156 
0.595075 0.541287 -0.007522 
1.019690 0.777203 0.000029 
0.628713 0.750951 -0.001316 
0.989167 0.656456 -0.009581 
0.173171 0.102915 0.010542 
0.191582 0.798953 -0.008572 
1.273264 0.801762 -0.005112 
1.462613 0.803904 -0.012868 
0.177038 0.278711 0.002839 
0.342701 0.111511 0.006985 
0.385413 0.648878 -0.006505 
0.935535 0.577566 -0.013713 
0.211252 0.447346 -0.004115 
0.479340 0.760808 -0.003221 
0.266656 0.708927 -0.007706 
0.362370 0.437903 -0.004954 
0.202207 0.897357 -0.006824 
0.288608 0.287966 0.000762 
1.100242 0.921668 0.013467 
1.268386 0.902864 0.007226 
0.261457 0.562365 -0.006874 
1.455514 0.915707 0.001928 
0.574736 0.912809 0.005308 
0.456672 0.144317 0.003523 
0.375801 0.722374 -0.005817 
0.482302 0.245113 -0.000876 
0.438461 0.063368 0.007143 
0.289578 0.411244 -0.003602 
0.693836 0.909195 0.008689 
0.619055 0.589525 -0.006938 
0.590183 0.486312 -0.007713 
0.539245 0.381053 -0.005715 
0.557177 0.783844 -0.000972 
0.481088 0.579189 -0.006590 
0.697493 0.796922 0.001897 
[...]
POINT_DATA 749
SCALARS u float 1
LOOKUP_TABLE default
0.060232
0.030734
0.028907
0.017230
0.038871
0.027787
0.048769
0.106929
0.059005
0.031750
0.028227
0.026443
0.049059
0.034720
0.060033
0.031034
0.029256
0.017163
0.038865
0.027686
0.049222
0.107031
0.058544
0.032101
0.028310
0.027025
0.048683
0.035156
0.040796
0.040598
0.016033
0.054770
0.016711
0.016729
0.012662
0.018790
0.053378
0.045954
0.038416
0.046986
0.033829
0.021500
0.012463
0.013625
0.020486
0.026484
0.034513
0.034892
0.018149
0.011642
0.017428
0.029829
0.043059
0.057537
0.069478
0.077575
0.081247
0.079524
0.074484
0.066911
0.057691
0.053332
0.024591
0.024635
0.019552
0.012809
0.012133
0.019782
0.044319
0.048304
0.040794
0.038392
0.021143
0.045815
0.057035
0.069178
0.082114
0.094819
0.053303
0.046046
0.038479
0.046963
0.033703
0.021312
0.012203
0.013508
0.020813
0.026657
0.034432
0.034868
0.018049
0.011519
0.017588
0.029786
0.043148
0.057501
0.069521
0.077618
0.081294
0.079754
0.074533
0.066958
0.057880
0.053634
0.024596
0.024762
0.019441
0.013266
0.012603
0.020282
0.043909
0.047641
0.040272
0.038154
0.020818
0.046071
0.057017
0.069372
0.082228
0.094880
0.058632
0.028085
0.029008
0.010549
0.038128
0.025800
0.028591
0.099149
0.055989
0.018794
0.027421
0.026045
0.046126
0.022635
0.051148
0.051063
0.025733
0.025993
0.014034
0.018365
0.018368
0.013997
0.030368
0.022134
0.018729
0.020992
0.025535
0.029015
0.030079
0.028660
0.024189
0.018351
0.010873
0.006066
0.009583
0.003849
0.008343
0.019701
0.028831
0.035960
0.040152
0.040809
0.038235
0.032600
0.025010
0.015633
0.005822
0.003850
0.030147
0.021979
0.018477
0.020885
0.025464
0.028812
0.029984
0.028507
0.024268
0.018371
0.010783
0.006165
0.009566
0.042079
0.028954
0.016489
0.005275
0.004087
0.010367
0.014092
0.014850
0.011781
0.007450
0.001334
0.005319
0.012400
0.019796
0.080872
0.080789
0.018890
0.070477
0.070641
0.032068
0.032010
0.054933
0.055098
0.034098
0.033878
0.016415
0.063796
0.063683
0.017269
0.074179
0.003064
0.013976
0.038946
0.014983
0.019492
0.021618
0.009255
0.011403
0.007199
0.020505
0.003081
0.016836
0.009262
0.016743
0.027954
0.015778
0.045449
0.011254
0.025292
0.030421
0.024634
0.033632
0.016704
0.034147
0.008275
0.003502
0.025698
0.031351
0.018132
0.010677
0.012267
0.010584
0.017710
0.016007
0.017248
0.016691
0.015634
0.014708
0.038801
0.014533
0.015066
0.019485
0.021800
0.009075
0.016712
0.003113
0.020251
0.011402
0.007045
0.009142
0.016637
0.027867
0.045346
0.014591
0.011235
0.019062
0.024675
0.030391
0.033628
0.017062
0.025598
0.034083
0.031281
0.008323
0.003271
0.017846
0.010497
0.012100
0.010612
0.029432
0.021408
0.012494
0.016289
0.015026
0.022833
0.037422
0.023163
0.019922
0.018742
0.022296
0.018121
0.023910
0.018348
0.037084
0.013374
0.038308
0.012572
0.019635
0.014975
0.019691
0.022762
0.011795
0.026915
0.022750
0.030753
0.034856
0.049489
0.025963
0.046708
0.015548
0.025572
0.021767
0.020760
0.012422
0.024651
0.027202
0.013230
0.039278
0.036541
0.028924
0.039493
0.057197
0.015367
0.025855
0.021252
0.048713
0.015707
0.014191
0.025393
0.017251
0.024217
0.012243
0.053812
0.042870
0.022538
0.039575
0.023333
0.016465
0.019759
0.010768
0.026310
0.014481
0.033765
0.023256
0.025145
0.019569
0.012397
0.021398
0.018063
0.016098
0.027309
0.010929
0.020155
0.034569
0.016752
0.032528
0.055975
0.027714
0.036709
0.054254
0.044744
0.020431
0.022400
0.040390
0.028404
0.020995
0.017537
0.047588
0.021876
0.015837
0.022677
0.018884
0.018116
0.025876
0.019556
0.075460
0.015421
0.023833
0.012291
0.015355
0.038151
0.023154
0.050958
0.032377
0.055903
0.018066
0.021397
0.021410
0.036383
0.012240
0.011900
0.015510
0.016537
0.016048
0.011707
0.032789
0.038020
0.020771
0.039615
0.031250
0.021722
0.026058
0.014891
0.021509
0.012840
0.016384
0.014718
0.022788
0.037476
0.022905
0.019964
0.019002
0.022568
0.017482
0.023760
0.018232
0.037196
0.013807
0.038621
0.012726
0.019551
0.015004
0.019644
0.022500
0.011527
0.026836
0.022992
0.030732
0.034651
0.049511
0.026183
0.046328
0.015520
0.025485
0.021551
0.020423
0.012534
0.024407
0.027384
0.013112
0.038928
0.036654
0.029047
0.039786
0.057213
0.015025
0.026104
0.021510
0.048234
0.016008
0.014258
0.025580
0.016935
0.024364
0.012273
0.054052
0.043052
0.022476
0.039785
0.023536
0.016682
0.019951
0.011172
0.026517
0.014749
0.033860
0.023304
0.025408
0.019797
0.012379
0.021710
0.017617
0.015957
0.027325
0.011309
0.020278
0.034297
0.016989
0.032887
0.056121
0.027604
0.037074
0.054535
0.044795
0.020537
0.022320
0.040771
0.028431
0.021520
0.017427
0.047720
0.021672
0.015577
0.022380
0.018818
0.017830
0.026052
0.019776
0.075622
0.015529
0.023876
0.012220
0.015110
0.037703
0.023088
0.050545
0.032126
0.056203
0.018322
0.021457
0.021138
0.036436
0.012337
0.011744
0.015651
0.016434
0.016062
0.011700
0.033300
0.037872
0.021145
0.039593
0.031268
0.021404
0.026055
0.015248
0.013358
0.010022
0.022653
0.003052
0.020353
0.026735
0.026619
0.020931
0.037180
0.048933
0.049184
0.038712
0.050178
0.050358
0.037363
0.029429
0.028750
0.012707
0.012391
0.016937
0.016711
0.011109
0.020384
0.017765
0.022786
0.038150
0.030855
0.030833
0.037874
0.065475
0.080693
0.051744
0.030638
0.091834
0.092625
0.030843
0.008688
0.004352
0.017999
0.032643
0.046973
0.060166
0.069854
0.074935
0.075315
0.069522
0.060566
0.049179
0.038317
0.018475
0.021599
0.039305
0.047720
0.040452
0.033229
0.054168
0.038833
0.009958
0.024658
0.003381
0.024136
0.015917
0.028399
0.049986
0.050848
0.028482
0.032539
0.035861
0.032804
0.035898
0.030227
0.030160
0.036228
0.036228
0.033650
0.017120
0.022468
0.022394
0.021284
0.023963
0.021809
0.021267
0.020854
0.020783
0.021625
0.018647
0.018040
0.017932
0.018884
0.018895
0.020486
0.020321
0.024441
0.021725
0.023734
0.024144
0.020489
0.022916
0.008787
0.018232
0.016699
0.020693
0.033871
0.008242
0.007674
0.011101
0.010622
0.023712
0.026285
0.026246
0.014241
0.014340
0.005092
0.017073
0.042925
0.010626
0.006360
0.012632
0.014404
0.012169
0.029382
0.031361
0.031395
0.019906
0.023597
0.021970
0.015336
0.014735
0.021075
0.023028
0.022147
0.022238
0.022404
0.024359
0.021706
0.022276
0.022101
0.022244
0.021465
0.022001
0.017612
0.005701
0.016859
0.018617
0.019832
0.019404
0.019159
0.026509
0.014361
0.014417
0.023638
0.026288
0.029219
0.021552
0.006702
0.005626
0.014618
0.023534
0.027899
0.023941
0.022246
0.010743
0.005781
0.019830
0.016880
0.024221
0.014369
0.010926
0.026094
0.022531
0.019958
0.027974
0.070173
0.060524
0.050759
0.052196
0.033343
0.044138
0.040399
0.016925
0.011256
0.007744
0.041300
0.022966
0.022073
0.019886
0.032303
0.019665
0.019176
0.021062
0.021152
0.019123
0.016889
0.014683
0.011057
0.021554
0.024357
0.027266
0.023250
0.022274
0.018580
0.024027
0.026951
0.030016
0.025386
0.028400
0.027416
0.022194
0.025692
0.024547
0.023961
0.024444
0.023431
0.022954
0.021723
0.019889
0.023312
0.024856
0.022351
0.022061
0.007384
0.054764
