# vtk DataFile Version 2.0
Unstructured Grid Example
ASCII
DATASET UNSTRUCTURED_GRID
POINTS 1221 float
0.001699 -0.000542 -0.004238 
0.999008 -0.001572 0.002167 
0.999395 1.000555 0.000417 
0.001100 1.001443 0.000192 
-0.000629 -0.000318 0.045760 
1.001182 0.001705 0.052156 
1.000896 0.998856 0.050419 
-0.001473 0.998828 0.050201 
-0.000753 0.049708 0.045723 
-0.000738 0.099622 0.045893 
-0.000761 0.149499 0.046484 
-0.000593 0.199762 0.047555 
-0.000197 0.249573 0.048817 
-0.000068 0.299546 0.050395 
0.000109 0.349445 0.052344 
0.000841 0.399494 0.054952 
0.001303 0.449690 0.057427 
0.001498 0.500144 0.058706 
0.001588 0.550631 0.058359 
0.001488 0.601206 0.056430 
0.000780 0.651701 0.052331 
0.000035 0.701609 0.048212 
-0.000515 0.750873 0.044819 
-0.000684 0.800257 0.043366 
-0.000968 0.849567 0.043363 
-0.001210 0.899135 0.045126 
-0.001397 0.948861 0.047555 
0.001317 0.049506 -0.004249 
0.001071 0.099681 -0.004058 
0.000571 0.149918 -0.003532 
0.000097 0.200194 -0.002319 
-0.000363 0.250296 -0.001144 
-0.000485 0.300677 0.000284 
-0.000605 0.351061 0.002410 
-0.000995 0.401211 0.004969 
-0.001144 0.450801 0.007373 
-0.001142 0.500529 0.008655 
-0.000949 0.549906 0.008295 
-0.000966 0.599396 0.006507 
-0.000100 0.648869 0.002572 
0.000280 0.698973 -0.001816 
0.000860 0.749391 -0.005066 
0.001025 0.800073 -0.006849 
0.001020 0.850684 -0.006558 
0.001077 0.901259 -0.004875 
0.001147 0.951446 -0.002439 
0.000535 -0.000423 0.020798 
-0.000184 1.000139 0.025194 
0.049423 -0.000043 0.048258 
0.099373 0.000156 0.050949 
0.149629 0.000384 0.052969 
0.200138 0.000199 0.053921 
0.250522 0.000240 0.053848 
0.301246 0.000035 0.052236 
0.351362 -0.000795 0.048813 
0.401939 -0.001204 0.044606 
0.451629 -0.001632 0.040784 
0.500806 -0.001820 0.038499 
0.550006 -0.001971 0.038644 
0.599402 -0.001561 0.040662 
0.648650 -0.000953 0.045089 
0.698637 -0.000145 0.050289 
0.748986 0.000650 0.054356 
0.799965 0.000959 0.056848 
0.850555 0.001210 0.057280 
0.900889 0.001260 0.056025 
0.951149 0.001599 0.054244 
0.051701 -0.000345 -0.001698 
0.101566 -0.000351 0.000911 
0.150978 -0.000215 0.002937 
0.200408 -0.000066 0.003903 
0.250145 0.000020 0.003837 
0.299285 0.000190 0.002358 
0.348805 0.000605 -0.001264 
0.398640 0.001111 -0.005292 
0.449051 0.001544 -0.009240 
0.499855 0.001812 -0.011431 
0.550629 0.001792 -0.011382 
0.601096 0.001600 -0.009120 
0.651902 0.001002 -0.005222 
0.701927 0.000474 0.000255 
0.751232 -0.000425 0.004715 
0.800376 -0.000951 0.006770 
0.849574 -0.001240 0.007240 
0.899239 -0.001388 0.006052 
0.949014 -0.001557 0.004226 
1.000092 0.000065 0.027143 
1.001144 0.051624 0.048825 
1.001008 0.101295 0.045558 
1.000846 0.150483 0.043377 
1.000651 0.199880 0.042930 
1.000590 0.249256 0.044075 
0.999760 0.298756 0.047036 
0.999125 0.347837 0.052495 
0.998425 0.398047 0.057811 
0.997956 0.448783 0.061627 
0.998038 0.499795 0.062392 
0.998161 0.550570 0.060365 
0.998902 0.601372 0.056198 
0.999816 0.651262 0.050545 
1.000382 0.700165 0.047156 
1.000626 0.749900 0.045389 
1.000683 0.799663 0.044824 
1.000749 0.849273 0.045517 
1.000709 0.899047 0.046980 
1.000849 0.948901 0.048700 
0.999005 0.048483 -0.001207 
0.998985 0.098575 -0.004469 
0.999093 0.149363 -0.006650 
0.999214 0.199886 -0.007028 
0.999211 0.250534 -0.005946 
0.999861 0.301463 -0.002925 
1.000178 0.351458 0.002689 
1.000849 0.401608 0.007797 
1.001314 0.450544 0.011567 
1.001660 0.499314 0.012347 
1.001807 0.548790 0.010401 
1.001458 0.598105 0.006085 
1.000464 0.648338 0.000881 
0.999975 0.699015 -0.002942 
0.999747 0.749476 -0.004571 
0.999542 0.799978 -0.005046 
0.999400 0.850423 -0.004538 
0.999385 0.900547 -0.003015 
0.999359 0.950598 -0.001323 
1.000147 0.999709 0.025412 
0.950878 0.998943 0.051870 
0.900708 0.999222 0.053185 
0.850329 0.999462 0.054118 
0.800002 0.999731 0.054308 
0.749507 0.999922 0.053663 
0.699068 1.000215 0.051951 
0.648759 1.000327 0.048904 
0.598075 1.000970 0.045263 
0.548288 1.000917 0.041580 
0.499098 1.000986 0.039565 
0.450129 1.000942 0.039838 
0.400885 1.000796 0.041984 
0.351236 1.000379 0.046229 
0.300975 1.000089 0.050516 
0.250530 0.999659 0.054153 
0.199896 0.999423 0.056017 
0.149266 0.999390 0.056423 
0.098793 0.999126 0.054868 
0.048550 0.998892 0.052727 
0.949429 1.000546 0.001855 
0.899488 1.000600 0.003209 
0.849727 1.000469 0.004166 
0.799901 1.000458 0.004233 
0.750210 1.000392 0.003700 
0.700577 1.000177 0.002084 
0.650810 1.000023 -0.001038 
0.600791 0.999174 -0.004785 
0.550658 0.998702 -0.008435 
0.499942 0.998473 -0.010398 
0.449255 0.998721 -0.010259 
0.398677 0.998795 -0.007832 
0.348419 0.999174 -0.003794 
0.298302 0.999717 0.000473 
0.248934 1.000357 0.004127 
0.199724 1.000857 0.006310 
0.150241 1.000892 0.006336 
0.100782 1.001275 0.004949 
0.051026 1.001402 0.002691 
0.024424 1.000458 0.020312 
0.019073 0.999608 0.036619 
0.975661 0.999924 0.020016 
0.980667 0.999372 0.036413 
0.481116 0.999725 0.014386 
0.774901 1.000133 0.029140 
0.674539 1.000175 0.025596 
0.525220 0.999715 0.015306 
0.724779 1.000210 0.028142 
0.624387 1.000338 0.022120 
0.074798 1.000175 0.028947 
0.224889 1.000006 0.030544 
0.574539 0.999858 0.018187 
0.174706 1.000211 0.031463 
0.124774 1.000237 0.030813 
0.875064 0.999988 0.028761 
0.824920 1.000063 0.029317 
0.374629 0.999809 0.018894 
0.918439 0.999861 0.027751 
0.274843 0.999895 0.027692 
0.324756 0.999828 0.023371 
0.424725 0.999755 0.015754 
0.499983 0.499732 0.049669 
0.291954 0.295202 0.048892 
0.708055 0.705098 0.050239 
0.709354 0.291170 0.050798 
0.290783 0.708897 0.051512 
0.501173 0.781996 0.053275 
0.783859 0.498221 0.045681 
0.499345 0.222996 0.054296 
0.224920 0.502464 0.045387 
0.167780 0.170973 0.050839 
0.831362 0.170059 0.049574 
0.830729 0.830722 0.049937 
0.168503 0.830067 0.050772 
0.564130 0.640214 0.053153 
0.435968 0.359749 0.050793 
0.642928 0.438157 0.047544 
0.353128 0.566420 0.048090 
0.639540 0.847322 0.052476 
0.360890 0.153458 0.052610 
0.151697 0.360457 0.047966 
0.845842 0.359462 0.048391 
0.846017 0.641460 0.047390 
0.641437 0.152811 0.051866 
0.358603 0.846798 0.050376 
0.154354 0.634869 0.048840 
0.678681 0.581403 0.047358 
0.560795 0.331344 0.053315 
0.439290 0.668705 0.053595 
0.321761 0.420222 0.045874 
0.532993 0.882934 0.047710 
0.465277 0.116530 0.048509 
0.880410 0.465637 0.052815 
0.121120 0.465580 0.050678 
0.744204 0.896612 0.052672 
0.107774 0.258328 0.048836 
0.258770 0.098116 0.053260 
0.896854 0.255616 0.046329 
0.890078 0.736937 0.047277 
0.737341 0.110582 0.052590 
0.262709 0.889526 0.052699 
0.110093 0.738837 0.047763 
0.601371 0.740053 0.054094 
0.398509 0.260270 0.052941 
0.745002 0.405038 0.046276 
0.251913 0.597294 0.047092 
0.598735 0.520777 0.048432 
0.397695 0.474696 0.047918 
0.612100 0.254286 0.054264 
0.387937 0.745653 0.053439 
0.097227 0.094952 0.049751 
0.903103 0.095510 0.050201 
0.905619 0.901886 0.050028 
0.097778 0.904935 0.050439 
0.436611 0.903718 0.045786 
0.901965 0.563569 0.052270 
0.562998 0.095534 0.047070 
0.098368 0.563587 0.052320 
0.258416 0.202650 0.051495 
0.742170 0.797316 0.051283 
0.797315 0.258411 0.048792 
0.208859 0.745681 0.050594 
0.195789 0.279337 0.048375 
0.798501 0.716046 0.048352 
0.714901 0.206655 0.052313 
0.285673 0.793500 0.052257 
0.501917 0.412105 0.050424 
0.497195 0.587965 0.051705 
0.240743 0.365413 0.046206 
0.759457 0.634296 0.047255 
0.689941 0.500731 0.045533 
0.646366 0.346026 0.050886 
0.308542 0.504496 0.045453 
0.353789 0.653930 0.051426 
0.079719 0.183306 0.048470 
0.176690 0.084607 0.052784 
0.817756 0.918967 0.052660 
0.919843 0.182584 0.045719 
0.917748 0.820429 0.047307 
0.821638 0.083593 0.053497 
0.080152 0.817526 0.046344 
0.184748 0.913686 0.053913 
0.652539 0.655245 0.050767 
0.347586 0.344713 0.048387 
0.514116 0.696498 0.054803 
0.485865 0.303892 0.053944 
0.609321 0.918337 0.048788 
0.390303 0.082109 0.049134 
0.079102 0.394538 0.051592 
0.916131 0.389047 0.053078 
0.925258 0.660313 0.048795 
0.660013 0.074457 0.048707 
0.340117 0.925194 0.048631 
0.074910 0.662322 0.050488 
0.431188 0.822407 0.050854 
0.820506 0.566013 0.046971 
0.568637 0.177151 0.052737 
0.180847 0.566984 0.047806 
0.190635 0.431444 0.046294 
0.573428 0.818998 0.052512 
0.426692 0.178472 0.052849 
0.820474 0.426993 0.048049 
0.565651 0.458053 0.049315 
0.435239 0.541732 0.049724 
0.774220 0.331621 0.047961 
0.225731 0.668001 0.049088 
0.667783 0.781272 0.052744 
0.333076 0.218582 0.052366 
0.676487 0.930914 0.051463 
0.068397 0.317978 0.049969 
0.322977 0.069831 0.051839 
0.929856 0.321500 0.048791 
0.745984 0.559542 0.045597 
0.447746 0.736406 0.053975 
0.552083 0.263319 0.054689 
0.614689 0.594444 0.050081 
0.385631 0.405764 0.047934 
0.258587 0.443227 0.045052 
0.585534 0.393478 0.050688 
0.414519 0.606596 0.051201 
0.450347 0.427793 0.049380 
0.548623 0.571930 0.051035 
0.484490 0.935356 0.043223 
0.932845 0.515188 0.056793 
0.515469 0.063447 0.043754 
0.066739 0.515624 0.054867 
0.499453 0.839355 0.049998 
0.836478 0.507560 0.048596 
0.500392 0.151307 0.051136 
0.154778 0.501095 0.048803 
0.696720 0.842966 0.052517 
0.303794 0.157022 0.052973 
0.842230 0.302620 0.047311 
0.149513 0.702306 0.048980 
0.159336 0.231435 0.049416 
0.842410 0.773094 0.048418 
0.773465 0.158298 0.051562 
0.226612 0.841804 0.052356 
0.670274 0.238340 0.053134 
0.329961 0.762162 0.052780 
0.697157 0.356373 0.048817 
0.303019 0.643620 0.049653 
0.938680 0.606902 0.052287 
0.606370 0.059116 0.045256 
0.394241 0.940345 0.044949 
0.061742 0.607183 0.053348 
0.700622 0.433827 0.045931 
0.303771 0.557915 0.046462 
0.053762 0.054069 0.048082 
0.946566 0.055511 0.050940 
0.946610 0.944632 0.050234 
0.053278 0.944934 0.050227 
0.772672 0.945943 0.053473 
0.055525 0.232255 0.048574 
0.227056 0.054492 0.053714 
0.945765 0.771353 0.046035 
0.771294 0.055441 0.054571 
0.229122 0.944583 0.054431 
0.947157 0.227252 0.044543 
0.054451 0.772179 0.045296 
0.219763 0.160568 0.052054 
0.775563 0.847277 0.051582 
0.847634 0.224842 0.047805 
0.155174 0.774491 0.049168 
0.552273 0.948618 0.044305 
[...]
POINT_DATA 1221
SCALARS u float 1
LOOKUP_TABLE default
0.074382
0.046181
0.014893
0.029515
0.069526
0.048410
0.024466
0.030625
0.070417
0.067787
0.058760
0.040879
0.020597
0.009797
0.039000
0.081672
0.122088
0.142924
0.138015
0.108536
0.048364
0.038914
0.085401
0.107973
0.108735
0.082443
0.049133
0.072404
0.068098
0.057899
0.037684
0.020001
0.014233
0.043708
0.084292
0.121396
0.141480
0.135075
0.106866
0.045476
0.034059
0.083703
0.112040
0.107933
0.083292
0.049474
0.068856
0.004877
0.029698
0.018571
0.048801
0.063544
0.062945
0.041416
0.031934
0.094747
0.153685
0.188819
0.186452
0.153465
0.083821
0.022661
0.073107
0.111864
0.119719
0.100602
0.075681
0.039281
0.029852
0.050201
0.063497
0.062111
0.039980
0.029797
0.090193
0.152316
0.187246
0.186671
0.150841
0.091352
0.032374
0.079136
0.110759
0.119024
0.101200
0.074586
0.034712
0.037328
0.076611
0.108293
0.114865
0.097079
0.052135
0.055263
0.132721
0.191983
0.202994
0.170542
0.104216
0.022438
0.046499
0.075290
0.084627
0.074466
0.052506
0.030775
0.035250
0.077631
0.109065
0.114412
0.097414
0.052947
0.049566
0.129515
0.188528
0.201847
0.171894
0.105766
0.031348
0.050190
0.074544
0.081966
0.074370
0.050555
0.025674
0.008500
0.037540
0.054258
0.067398
0.069830
0.059807
0.035150
0.027294
0.084184
0.139790
0.170186
0.165107
0.131104
0.064489
0.017909
0.067953
0.097800
0.105048
0.082352
0.053081
0.032610
0.053464
0.067956
0.068894
0.060280
0.035101
0.021300
0.079586
0.138464
0.170009
0.167674
0.129960
0.067814
0.028884
0.069197
0.103106
0.103577
0.083645
0.051809
0.024256
0.023533
0.018275
0.020447
0.171999
0.067027
0.012513
0.157109
0.051060
0.047947
0.063999
0.089702
0.110583
0.104712
0.094191
0.060854
0.069859
0.099002
0.044595
0.043658
0.026794
0.149696
0.006897
0.019294
0.007393
0.015236
0.025203
0.053894
0.070617
0.069664
0.075529
0.016086
0.010981
0.008022
0.015462
0.052019
0.015481
0.041461
0.032711
0.041227
0.042541
0.033563
0.032193
0.042591
0.032847
0.009172
0.020875
0.043248
0.054312
0.058655
0.066771
0.041847
0.032494
0.054744
0.022488
0.043258
0.019070
0.053015
0.059560
0.044650
0.042333
0.043894
0.036674
0.066517
0.048486
0.060721
0.047938
0.026084
0.034446
0.069397
0.055789
0.007675
0.016553
0.010677
0.016607
0.069037
0.041466
0.052484
0.044801
0.025147
0.021447
0.020019
0.010676
0.027753
0.027128
0.037650
0.036920
0.007868
0.028251
0.061402
0.044705
0.072533
0.019552
0.073955
0.026132
0.026190
0.045700
0.043217
0.070190
0.045333
0.058985
0.060200
0.064540
0.016564
0.027442
0.077720
0.064202
0.030673
0.024312
0.028236
0.054188
0.020291
0.024228
0.023149
0.017901
0.017096
0.049675
0.045967
0.041101
0.060067
0.042332
0.046826
0.036817
0.013974
0.007613
0.033597
0.015849
0.044559
0.038577
0.028928
0.002858
0.030158
0.028216
0.071376
0.064321
0.075874
0.011324
0.034003
0.080052
0.014622
0.021086
0.011796
0.017282
0.110260
0.113877
0.105521
0.082319
0.018077
0.033176
0.023790
0.027818
0.040751
0.048252
0.043666
0.016921
0.010964
0.026666
0.025981
0.038322
0.050990
0.045366
0.022222
0.012094
0.040459
0.079469
0.082739
0.059559
0.066634
0.058393
0.032818
0.031630
0.019601
0.025973
0.056198
0.023175
0.060275
0.065026
0.074796
0.071887
0.088903
0.077047
0.034066
0.026165
0.035665
0.015873
0.094253
0.133645
0.096561
0.071908
0.029326
0.040077
0.038294
0.026944
0.075276
0.071000
0.033756
0.057803
0.029672
0.056385
0.022727
0.048640
0.019951
0.035314
0.013428
0.036384
0.031117
0.065977
0.040839
0.071998
0.044705
0.062363
0.066489
0.050740
0.062148
0.064623
0.037369
0.052336
0.053080
0.078391
0.021742
0.020228
0.032608
0.011939
0.007534
0.013473
0.028680
0.040252
0.024333
0.056921
0.051228
0.048857
0.048876
0.028407
0.039858
0.027312
0.021099
0.021872
0.015884
0.031094
0.031976
0.059860
0.046302
0.045499
0.013628
0.007090
0.006230
0.015790
0.040371
0.043017
0.033948
0.014580
0.018075
0.022334
0.052931
0.012885
0.013402
0.032326
0.021975
0.046018
0.041898
0.052299
0.032139
0.014354
0.033004
0.043172
0.032078
0.124540
0.109978
0.127004
0.095933
0.030226
0.033596
0.045445
0.061391
0.054855
0.045516
0.037981
0.008090
0.047982
0.072076
0.007778
0.007225
0.056583
0.042441
0.007053
0.049598
0.061415
0.027242
0.042673
0.027486
0.042361
0.030895
0.080168
0.037313
0.023518
0.028793
0.024496
0.048892
0.071909
0.067520
0.051123
0.011434
0.019087
0.033225
0.023546
0.049619
0.026324
0.016301
0.013266
0.009520
0.039767
0.053993
0.097976
0.057289
0.066691
0.095301
0.091530
0.088070
0.076270
0.053891
0.016644
0.082786
0.078126
0.006688
0.010548
0.032407
0.038286
0.070650
0.070948
0.007316
0.038409
0.071074
0.071144
0.068150
0.075074
0.027508
0.018858
0.014781
0.045873
0.023867
0.022684
0.034115
0.023206
0.063149
0.060589
0.034687
0.008207
0.016827
0.041707
0.060336
0.046351
0.023012
0.056306
0.052586
0.068978
0.065948
0.072286
0.110639
0.025355
0.020137
0.016857
0.023528
0.013405
0.031370
0.024067
0.022417
0.016854
0.022228
0.041448
0.025772
0.028348
0.055885
0.010699
0.017254
0.046412
0.050152
0.057612
0.076046
0.021883
0.027525
0.022190
0.012847
0.012581
0.060453
0.161992
0.138640
0.133715
0.106697
0.038185
0.019589
0.039175
0.022505
0.019516
0.049913
0.044018
0.007594
0.038788
0.030744
0.057959
0.029105
0.044147
0.048253
0.029082
0.044593
0.036743
0.045372
0.013520
0.020710
0.014892
0.011220
0.024072
0.024058
0.012974
0.029607
0.056392
0.052085
0.027149
0.028896
0.051470
0.084018
0.070383
0.041212
0.014044
0.026808
0.023098
0.066379
0.049933
0.035115
0.083524
0.018215
0.013006
0.024972
0.023639
0.040148
0.029754
0.041748
0.157238
0.154478
0.116929
0.145094
0.060686
0.043696
0.063408
0.029841
0.007496
0.034327
0.044288
0.035735
0.027729
0.014507
0.011433
0.015548
0.008999
0.028269
0.050581
0.039517
0.021849
0.031399
0.034360
0.038211
0.068658
0.063090
0.049988
0.082665
0.046282
0.036400
0.044867
0.011732
0.038298
0.045524
0.047587
0.056871
0.019766
0.075292
0.049956
0.065820
0.049526
0.040106
0.022812
0.028947
0.073939
0.055392
0.062602
0.025767
0.056193
0.017015
0.007924
0.063635
0.052946
0.013748
0.016450
0.027732
0.024822
0.023588
0.038042
0.026247
0.052774
0.032222
0.038612
0.006251
0.019534
0.013572
0.026190
0.089171
0.106325
0.078812
0.061262
0.006875
0.013179
0.010510
0.019970
0.193085
0.079893
0.082310
0.081793
0.061964
0.035324
0.111048
0.114753
0.094228
0.053226
0.006798
0.200687
0.164536
0.087386
0.136009
0.057074
0.065112
0.025187
0.051647
0.050427
0.051125
0.052967
0.189897
0.055790
0.110177
0.121638
0.084688
0.100635
0.059613
0.035221
0.065958
0.008325
0.053820
0.170966
0.012167
0.121684
0.123064
0.040315
0.043830
0.168195
0.006006
0.018786
0.009141
0.017656
0.027916
0.054640
0.071350
0.071054
0.075874
0.015516
0.015930
0.008144
0.017394
0.051173
0.017531
0.040234
0.031704
0.038842
0.043552
0.035877
0.029464
0.039843
0.032342
0.015616
0.016826
0.043604
0.066270
0.053363
0.058736
0.042225
0.030472
0.048852
0.021643
0.045082
0.020521
0.053376
0.058307
0.044949
0.041840
0.045408
0.038718
0.067367
0.049903
0.056168
0.042629
0.025681
0.035297
0.068817
0.056908
0.011608
0.019676
0.008859
0.021272
0.072731
0.040719
0.049131
0.038686
0.024677
0.023406
0.020650
0.009764
0.025993
0.026401
0.037955
0.037220
0.010019
0.028656
0.061026
0.044114
0.075540
0.074974
0.023629
0.030178
0.023030
0.044751
0.044398
0.068395
0.043855
0.058986
0.061129
0.063121
0.015718
0.079128
0.025596
0.063187
0.025453
0.022622
0.032202
0.051507
0.019874
0.027090
0.029441
0.009341
0.021060
0.050728
0.047532
0.037655
0.059141
0.042470
0.048439
0.040666
0.013916
0.007666
0.046247
0.034093
0.014201
0.036459
0.021520
0.009184
0.030074
0.026199
0.070174
0.065473
0.078735
0.011584
0.033804
0.080008
0.013255
0.020661
0.010959
0.018440
0.113665
0.111409
0.104744
0.080329
0.019137
0.033762
0.032559
0.025258
0.041861
0.046048
0.039525
0.018667
0.012220
0.026057
0.025503
0.039871
0.050413
0.042576
0.028839
0.014688
0.043187
0.076875
0.080708
0.054105
0.082009
0.076529
0.035640
0.027438
0.010891
0.026334
0.057226
0.024867
0.061062
0.064139
0.070442
0.075840
0.087454
0.074392
0.033799
0.027961
0.036392
0.020428
0.095792
0.128995
0.091865
0.070752
0.029981
0.039402
0.037998
0.028840
0.038501
0.068979
0.034605
0.060309
0.032564
0.074669
0.009824
0.048964
0.020150
0.055593
0.044094
0.037017
0.031758
0.067235
0.040806
0.071388
0.042921
0.064860
0.064522
0.052018
0.062951
0.034580
0.052496
0.053489
0.047119
0.035009
0.016851
0.021366
0.025619
0.010356
0.008498
0.014547
0.026843
0.039781
0.023807
0.049251
0.055148
0.046699
0.049556
0.034219
0.038215
0.032158
0.020398
0.020594
0.013738
0.030680
0.032498
0.056321
0.048585
0.045951
0.011779
0.005997
0.006681
0.017813
0.041378
0.045754
0.039208
0.014310
0.019175
0.009746
0.051924
0.010576
0.013301
0.046207
0.040981
0.051544
0.032259
0.009287
0.030380
0.041785
0.027762
0.126753
0.109336
0.126017
0.092070
0.028112
0.031608
0.042043
0.065468
0.052168
0.042136
0.034895
0.012091
0.047793
0.070916
0.006695
0.007240
0.056437
0.043430
0.010863
0.049639
0.060765
0.060773
0.028184
0.041762
0.029035
0.042487
0.030321
0.039274
0.067137
0.058773
0.017460
0.029954
0.020319
0.042503
0.071513
0.067243
0.050481
0.010051
0.019566
0.035471
0.028630
0.049282
0.014567
0.027967
0.016694
0.014552
0.035846
0.054938
0.096027
0.060074
0.065658
0.092333
0.091570
0.086247
0.011529
0.070086
0.012418
0.063734
0.080900
0.078154
0.085517
0.007409
0.009896
0.032034
0.015423
0.038838
0.011589
0.071354
0.070776
0.008903
0.039785
0.072333
0.071685
0.077754
0.071298
0.027407
0.016470
0.046969
0.029210
0.025555
0.040825
0.016725
0.057584
0.062431
0.032130
0.016420
0.018849
0.042909
0.059626
0.047852
0.019660
0.031818
0.026137
0.069907
0.067069
0.066443
0.107096
0.030533
0.026107
0.017974
0.017329
0.021650
0.033796
0.025694
0.018086
0.018808
0.017808
0.039444
0.022319
0.009100
0.016660
0.044934
0.051101
0.056201
0.075586
0.014292
0.027354
0.015235
0.158760
0.134749
0.133714
0.104748
0.046993
0.038543
0.018612
0.038564
0.027559
0.024137
0.061285
0.044898
0.020624
0.041385
0.030053
0.060034
0.026933
0.046765
0.049893
0.029207
0.041873
0.034806
0.044067
0.014136
0.014530
0.020401
0.049685
0.018260
0.013423
0.021477
0.029579
0.057555
0.049820
0.023602
0.057001
0.052046
0.078761
0.074364
0.024374
0.014646
0.026059
0.027669
0.024206
0.032800
0.051417
0.015527
0.015355
0.024880
0.019083
0.038532
0.031825
0.021845
0.042548
0.155151
0.154243
0.115116
0.148388
0.059745
0.042907
0.062208
0.038033
0.030642
0.012282
0.034321
0.044704
0.027578
0.009092
0.010748
0.015140
0.006700
0.030357
0.019597
0.012019
0.023251
0.030734
0.033813
0.038355
0.067849
0.063884
0.028179
0.050554
0.046253
0.037419
0.043384
0.016147
0.039931
0.048503
0.046816
0.058141
0.031723
0.076818
0.046824
0.067738
0.054284
0.037671
0.013975
0.028781
0.076251
0.056934
0.028368
0.056860
0.019535
0.008265
0.071321
0.058271
0.065622
0.052325
0.019526
0.007315
0.018542
0.021098
0.024086
0.038280
0.024133
0.052347
0.031988
0.036637
0.006340
0.019090
0.016076
0.088162
0.102876
0.077508
0.059447
0.019187
0.019549
0.070185
0.069114
0.142004
0.009365
0.102064
0.113360
0.095095
0.060576
0.030172
0.050659
0.063650
0.069243
0.020724
0.132867
0.059330
0.103801
0.077646
0.121198
0.062362
0.005638
