# vtk DataFile Version 2.0
Unstructured Grid Example
ASCII
DATASET UNSTRUCTURED_GRID
POINTS 1221 float
0.000774 -0.000247 -0.001932 
0.999548 -0.000716 0.000988 
0.999724 1.000253 0.000190 
0.000501 1.000658 0.000087 
-0.000287 -0.000145 0.048068 
1.000539 0.000777 0.050983 
1.000408 0.999479 0.050191 
-0.000671 0.999466 0.050091 
-0.000343 0.049867 0.048051 
-0.000337 0.099828 0.048128 
-0.000347 0.149772 0.048397 
-0.000270 0.199892 0.048886 
-0.000090 0.249805 0.049461 
-0.000031 0.299793 0.050180 
0.000050 0.349747 0.051068 
0.000383 0.399769 0.052257 
0.000594 0.449859 0.053385 
0.000683 0.500066 0.053968 
0.000724 0.550288 0.053810 
0.000678 0.600550 0.052931 
0.000356 0.650775 0.051063 
0.000016 0.700733 0.049185 
-0.000235 0.750398 0.047639 
-0.000312 0.800117 0.046976 
-0.000441 0.849803 0.046975 
-0.000551 0.899606 0.047778 
-0.000637 0.949481 0.048886 
0.000600 0.049775 -0.001936 
0.000488 0.099855 -0.001850 
0.000260 0.149963 -0.001610 
0.000044 0.200089 -0.001057 
-0.000165 0.250135 -0.000521 
-0.000221 0.300309 0.000129 
-0.000276 0.350483 0.001098 
-0.000454 0.400552 0.002265 
-0.000521 0.450365 0.003360 
-0.000521 0.500241 0.003944 
-0.000432 0.549957 0.003781 
-0.000440 0.599725 0.002966 
-0.000046 0.649484 0.001172 
0.000128 0.699532 -0.000828 
0.000392 0.749722 -0.002309 
0.000467 0.800033 -0.003122 
0.000465 0.850312 -0.002989 
0.000491 0.900574 -0.002222 
0.000523 0.950659 -0.001112 
0.000244 -0.000193 0.023085 
-0.000084 1.000063 0.025088 
0.049737 -0.000019 0.049206 
0.099714 0.000071 0.050433 
0.149831 0.000175 0.051353 
0.200063 0.000090 0.051787 
0.250238 0.000109 0.051754 
0.300568 0.000016 0.051019 
0.350621 -0.000362 0.049459 
0.400884 -0.000549 0.047542 
0.450742 -0.000744 0.045800 
0.500367 -0.000829 0.044758 
0.550003 -0.000898 0.044824 
0.599728 -0.000711 0.045744 
0.649385 -0.000435 0.047762 
0.699379 -0.000066 0.050132 
0.749538 0.000296 0.051985 
0.799984 0.000437 0.053121 
0.850253 0.000551 0.053318 
0.900405 0.000574 0.052746 
0.950524 0.000729 0.051934 
0.050775 -0.000157 -0.000774 
0.100714 -0.000160 0.000415 
0.150446 -0.000098 0.001339 
0.200186 -0.000030 0.001779 
0.250066 0.000009 0.001749 
0.299674 0.000087 0.001075 
0.349455 0.000276 -0.000576 
0.399380 0.000506 -0.002412 
0.449568 0.000704 -0.004211 
0.499934 0.000826 -0.005210 
0.550287 0.000817 -0.005187 
0.600500 0.000729 -0.004157 
0.650867 0.000457 -0.002380 
0.700878 0.000216 0.000116 
0.750562 -0.000194 0.002149 
0.800172 -0.000433 0.003085 
0.849806 -0.000565 0.003300 
0.899653 -0.000633 0.002758 
0.949551 -0.000709 0.001926 
1.000042 0.000030 0.025977 
1.000521 0.050740 0.049465 
1.000459 0.100590 0.047975 
1.000386 0.150220 0.046982 
1.000297 0.199945 0.046778 
1.000269 0.249661 0.047299 
0.999891 0.299433 0.048649 
0.999601 0.349014 0.051137 
0.999282 0.399110 0.053560 
0.999069 0.449445 0.055299 
0.999106 0.499907 0.055648 
0.999162 0.550260 0.054724 
0.999500 0.600625 0.052825 
0.999916 0.650575 0.050248 
1.000174 0.700075 0.048704 
1.000285 0.749955 0.047899 
1.000311 0.799846 0.047641 
1.000341 0.849668 0.047957 
1.000323 0.899565 0.048623 
1.000387 0.949499 0.049407 
0.999547 0.049309 -0.000550 
0.999537 0.099351 -0.002037 
0.999587 0.149710 -0.003031 
0.999642 0.199948 -0.003203 
0.999640 0.250244 -0.002710 
0.999937 0.300667 -0.001333 
1.000081 0.350664 0.001226 
1.000387 0.400733 0.003553 
1.000599 0.450248 0.005272 
1.000757 0.499687 0.005627 
1.000824 0.549448 0.004740 
1.000664 0.599136 0.002773 
1.000212 0.649242 0.000402 
0.999989 0.699551 -0.001341 
0.999885 0.749761 -0.002083 
0.999791 0.799990 -0.002300 
0.999727 0.850193 -0.002068 
0.999720 0.900249 -0.001374 
0.999708 0.950273 -0.000603 
1.000067 0.999868 0.025188 
0.950400 0.999518 0.050852 
0.900323 0.999645 0.051451 
0.850150 0.999755 0.051877 
0.800001 0.999878 0.051964 
0.749775 0.999964 0.051670 
0.699575 1.000098 0.050889 
0.649434 1.000149 0.049501 
0.599123 1.000442 0.047841 
0.549220 1.000418 0.046162 
0.499589 1.000449 0.045244 
0.450059 1.000430 0.045369 
0.400403 1.000363 0.046346 
0.350563 1.000173 0.048281 
0.300445 1.000041 0.050235 
0.250241 0.999844 0.051893 
0.199953 0.999737 0.052742 
0.149665 0.999722 0.052927 
0.099450 0.999602 0.052218 
0.049339 0.999495 0.051243 
0.949740 1.000249 0.000845 
0.899767 1.000274 0.001463 
0.849876 1.000214 0.001899 
0.799955 1.000209 0.001929 
0.750096 1.000179 0.001686 
0.700263 1.000081 0.000950 
0.650369 1.000011 -0.000473 
0.600361 0.999623 -0.002181 
0.550300 0.999409 -0.003844 
0.499974 0.999304 -0.004739 
0.449660 0.999417 -0.004675 
0.399397 0.999451 -0.003569 
0.349280 0.999623 -0.001729 
0.299226 0.999871 0.000216 
0.249514 1.000163 0.001881 
0.199874 1.000391 0.002876 
0.150110 1.000407 0.002888 
0.100357 1.000581 0.002256 
0.050468 1.000639 0.001226 
0.024359 1.000209 0.019537 
0.019464 0.999822 0.035965 
0.975679 0.999966 0.019402 
0.980417 0.999714 0.035871 
0.481415 0.999875 0.020162 
0.774955 1.000061 0.026887 
0.674790 1.000080 0.025272 
0.525504 0.999870 0.020582 
0.724899 1.000096 0.026432 
0.624721 1.000154 0.023687 
0.074908 1.000080 0.026799 
0.224949 1.000003 0.027527 
0.574835 0.999935 0.021895 
0.174866 1.000096 0.027945 
0.124897 1.000108 0.027649 
0.875029 0.999995 0.026714 
0.824963 1.000029 0.026968 
0.374831 0.999913 0.022217 
0.918382 0.999937 0.026254 
0.274928 0.999952 0.026227 
0.324889 0.999922 0.024257 
0.424875 0.999888 0.020786 
0.499992 0.499878 0.049849 
0.292152 0.295065 0.049495 
0.707843 0.705085 0.050109 
0.709202 0.290944 0.050364 
0.290861 0.709087 0.050689 
0.501276 0.781679 0.051493 
0.784182 0.498103 0.048032 
0.499429 0.223133 0.051958 
0.224560 0.502617 0.047897 
0.168017 0.170807 0.050383 
0.831161 0.169853 0.049806 
0.830506 0.830869 0.049971 
0.168778 0.830204 0.050352 
0.563867 0.640436 0.051437 
0.436178 0.359548 0.050362 
0.642663 0.437859 0.048881 
0.353263 0.566755 0.049130 
0.639692 0.847033 0.051129 
0.360823 0.153617 0.051190 
0.151482 0.360512 0.049073 
0.846344 0.359855 0.049266 
0.846181 0.641367 0.048811 
0.641484 0.153244 0.050850 
0.358534 0.846577 0.050171 
0.154046 0.634864 0.049471 
0.678461 0.581444 0.048796 
0.560733 0.331059 0.051511 
0.439305 0.668963 0.051638 
0.321753 0.420291 0.048120 
0.533412 0.882430 0.048957 
0.465252 0.117262 0.049321 
0.881432 0.465643 0.051283 
0.120460 0.465598 0.050309 
0.744262 0.896593 0.051218 
0.107866 0.258286 0.049469 
0.258695 0.097947 0.051486 
0.896703 0.255656 0.048327 
0.889838 0.736990 0.048759 
0.737174 0.110462 0.051180 
0.262849 0.889587 0.051230 
0.110187 0.738662 0.048980 
0.601164 0.740038 0.051866 
0.398781 0.260109 0.051340 
0.745133 0.404816 0.048303 
0.251784 0.597576 0.048675 
0.598545 0.520853 0.049285 
0.397878 0.474859 0.049051 
0.611920 0.254106 0.051943 
0.388023 0.745763 0.051567 
0.097430 0.094866 0.049887 
0.902721 0.095120 0.050092 
0.905395 0.902166 0.050013 
0.098206 0.905203 0.050200 
0.436737 0.903372 0.048080 
0.902573 0.563345 0.051035 
0.563085 0.096287 0.048665 
0.097579 0.563353 0.051057 
0.258555 0.202465 0.050682 
0.741990 0.797289 0.050585 
0.797256 0.258278 0.049449 
0.208957 0.745558 0.050271 
0.196011 0.279137 0.049259 
0.798333 0.716075 0.049249 
0.714760 0.206633 0.051054 
0.285502 0.793437 0.051029 
0.502003 0.412008 0.050193 
0.497223 0.588169 0.050777 
0.240795 0.365403 0.048271 
0.759293 0.634352 0.048749 
0.689732 0.500726 0.047964 
0.646147 0.345636 0.050404 
0.308667 0.504719 0.047927 
0.353922 0.654322 0.050650 
0.080006 0.183327 0.049303 
0.176885 0.084433 0.051269 
0.817667 0.919070 0.051212 
0.919470 0.182488 0.048049 
0.917455 0.820733 0.048773 
0.821284 0.083157 0.051594 
0.080528 0.817561 0.048334 
0.185058 0.913973 0.051784 
0.652188 0.655359 0.050350 
0.347861 0.344634 0.049265 
0.514070 0.696521 0.052189 
0.485922 0.303657 0.051797 
0.609801 0.917705 0.049448 
0.389869 0.082618 0.049605 
0.078715 0.394584 0.050725 
0.916670 0.389524 0.051403 
0.925098 0.660413 0.049451 
0.660277 0.074773 0.049411 
0.339914 0.925094 0.049376 
0.074659 0.661843 0.050222 
0.431195 0.822069 0.050389 
0.820770 0.565941 0.048619 
0.568608 0.177565 0.051248 
0.180150 0.566947 0.049000 
0.190517 0.431480 0.048311 
0.573576 0.818628 0.051145 
0.426687 0.178751 0.051298 
0.821110 0.426953 0.049111 
0.565553 0.457784 0.049688 
0.435286 0.541934 0.049874 
0.774252 0.331409 0.049071 
0.225591 0.668136 0.049584 
0.667661 0.781223 0.051251 
0.333200 0.218478 0.051078 
0.676951 0.930600 0.050667 
0.068479 0.317932 0.049986 
0.322837 0.069741 0.050838 
0.930118 0.322132 0.049449 
0.745831 0.559568 0.047993 
0.447796 0.736402 0.051812 
0.552021 0.263324 0.052137 
0.614381 0.594664 0.050037 
0.385823 0.405853 0.049059 
0.258591 0.443247 0.047745 
0.585483 0.393163 0.050313 
0.414541 0.606871 0.050547 
0.450499 0.427936 0.049717 
0.548621 0.572074 0.050472 
0.484648 0.934993 0.046911 
0.933849 0.515205 0.053096 
0.515333 0.064461 0.047153 
0.065962 0.515404 0.052218 
0.499850 0.838895 0.049999 
0.837277 0.507412 0.049360 
0.500364 0.151815 0.050518 
0.154110 0.501160 0.049455 
0.696697 0.842914 0.051147 
0.303858 0.156906 0.051355 
0.842296 0.302731 0.048775 
0.149422 0.702220 0.049535 
0.159477 0.231312 0.049734 
0.842164 0.773147 0.049279 
0.773316 0.158158 0.050712 
0.226719 0.841888 0.051074 
0.670111 0.238253 0.051428 
0.329988 0.761965 0.051267 
0.697017 0.356020 0.049461 
0.303063 0.643977 0.049842 
0.939190 0.606693 0.051042 
0.606450 0.059805 0.047838 
0.393995 0.939982 0.047698 
0.060967 0.606878 0.051526 
0.700422 0.433542 0.048145 
0.303834 0.558299 0.048387 
0.054121 0.054091 0.049126 
0.946029 0.054748 0.050428 
0.946219 0.945148 0.050107 
0.053958 0.945468 0.050104 
0.772710 0.945967 0.051583 
0.055593 0.232281 0.049350 
0.226958 0.054363 0.051693 
0.945441 0.771506 0.048193 
0.771478 0.055109 0.052083 
0.229038 0.944747 0.052019 
0.946815 0.227163 0.047513 
0.054729 0.771884 0.047856 
0.219885 0.160347 0.050936 
0.775420 0.847393 0.050721 
0.847552 0.224765 0.049000 
0.155429 0.774614 0.049621 
0.552774 0.948174 0.047404 
[...]
POINT_DATA 1221
SCALARS u float 1
LOOKUP_TABLE default
0.074382
0.046181
0.014893
0.029515
0.069526
0.048410
0.024466
0.030625
0.070417
0.067787
0.058760
0.040879
0.020597
0.009797
0.039000
0.081672
0.122088
0.142924
0.138015
0.108536
0.048364
0.038914
0.085401
0.107973
0.108735
0.082443
0.049133
0.072404
0.068098
0.057899
0.037684
0.020001
0.014233
0.043708
0.084292
0.121396
0.141480
0.135075
0.106866
0.045476
0.034059
0.083703
0.112040
0.107933
0.083292
0.049474
0.068856
0.004877
0.029698
0.018571
0.048801
0.063544
0.062945
0.041416
0.031934
0.094747
0.153685
0.188819
0.186452
0.153465
0.083821
0.022661
0.073107
0.111864
0.119719
0.100602
0.075681
0.039281
0.029852
0.050201
0.063497
0.062111
0.039980
0.029797
0.090193
0.152316
0.187246
0.186671
0.150841
0.091352
0.032374
0.079136
0.110759
0.119024
0.101200
0.074586
0.034712
0.037328
0.076611
0.108293
0.114865
0.097079
0.052135
0.055263
0.132721
0.191983
0.202994
0.170542
0.104216
0.022438
0.046499
0.075290
0.084627
0.074466
0.052506
0.030775
0.035250
0.077631
0.109065
0.114412
0.097414
0.052947
0.049566
0.129515
0.188528
0.201847
0.171894
0.105766
0.031348
0.050190
0.074544
0.081966
0.074370
0.050555
0.025674
0.008500
0.037540
0.054258
0.067398
0.069830
0.059807
0.035150
0.027294
0.084184
0.139790
0.170186
0.165107
0.131104
0.064489
0.017909
0.067953
0.097800
0.105048
0.082352
0.053081
0.032610
0.053464
0.067956
0.068894
0.060280
0.035101
0.021300
0.079586
0.138464
0.170009
0.167674
0.129960
0.067814
0.028884
0.069197
0.103106
0.103577
0.083645
0.051809
0.024256
0.023533
0.018275
0.020447
0.171999
0.067027
0.012513
0.157109
0.051060
0.047947
0.063999
0.089702
0.110583
0.104712
0.094191
0.060854
0.069859
0.099002
0.044595
0.043658
0.026794
0.149696
0.006897
0.019294
0.007393
0.015236
0.025203
0.053894
0.070617
0.069664
0.075529
0.016086
0.010981
0.008022
0.015462
0.052019
0.015481
0.041461
0.032711
0.041227
0.042541
0.033563
0.032193
0.042591
0.032847
0.009172
0.020875
0.043248
0.054312
0.058655
0.066771
0.041847
0.032494
0.054744
0.022488
0.043258
0.019070
0.053015
0.059560
0.044650
0.042333
0.043894
0.036674
0.066517
0.048486
0.060721
0.047938
0.026084
0.034446
0.069397
0.055789
0.007675
0.016553
0.010677
0.016607
0.069037
0.041466
0.052484
0.044801
0.025147
0.021447
0.020019
0.010676
0.027753
0.027128
0.037650
0.036920
0.007868
0.028251
0.061402
0.044705
0.072533
0.019552
0.073955
0.026132
0.026190
0.045700
0.043217
0.070190
0.045333
0.058985
0.060200
0.064540
0.016564
0.027442
0.077720
0.064202
0.030673
0.024312
0.028236
0.054188
0.020291
0.024228
0.023149
0.017901
0.017096
0.049675
0.045967
0.041101
0.060067
0.042332
0.046826
0.036817
0.013974
0.007613
0.033597
0.015849
0.044559
0.038577
0.028928
0.002858
0.030158
0.028216
0.071376
0.064321
0.075874
0.011324
0.034003
0.080052
0.014622
0.021086
0.011796
0.017282
0.110260
0.113877
0.105521
0.082319
0.018077
0.033176
0.023790
0.027818
0.040751
0.048252
0.043666
0.016921
0.010964
0.026666
0.025981
0.038322
0.050990
0.045366
0.022222
0.012094
0.040459
0.079469
0.082739
0.059559
0.066634
0.058393
0.032818
0.031630
0.019601
0.025973
0.056198
0.023175
0.060275
0.065026
0.074796
0.071887
0.088903
0.077047
0.034066
0.026165
0.035665
0.015873
0.094253
0.133645
0.096561
0.071908
0.029326
0.040077
0.038294
0.026944
0.075276
0.071000
0.033756
0.057803
0.029672
0.056385
0.022727
0.048640
0.019951
0.035314
0.013428
0.036384
0.031117
0.065977
0.040839
0.071998
0.044705
0.062363
0.066489
0.050740
0.062148
0.064623
0.037369
0.052336
0.053080
0.078391
0.021742
0.020228
0.032608
0.011939
0.007534
0.013473
0.028680
0.040252
0.024333
0.056921
0.051228
0.048857
0.048876
0.028407
0.039858
0.027312
0.021099
0.021872
0.015884
0.031094
0.031976
0.059860
0.046302
0.045499
0.013628
0.007090
0.006230
0.015790
0.040371
0.043017
0.033948
0.014580
0.018075
0.022334
0.052931
0.012885
0.013402
0.032326
0.021975
0.046018
0.041898
0.052299
0.032139
0.014354
0.033004
0.043172
0.032078
0.124540
0.109978
0.127004
0.095933
0.030226
0.033596
0.045445
0.061391
0.054855
0.045516
0.037981
0.008090
0.047982
0.072076
0.007778
0.007225
0.056583
0.042441
0.007053
0.049598
0.061415
0.027242
0.042673
0.027486
0.042361
0.030895
0.080168
0.037313
0.023518
0.028793
0.024496
0.048892
0.071909
0.067520
0.051123
0.011434
0.019087
0.033225
0.023546
0.049619
0.026324
0.016301
0.013266
0.009520
0.039767
0.053993
0.097976
0.057289
0.066691
0.095301
0.091530
0.088070
0.076270
0.053891
0.016644
0.082786
0.078126
0.006688
0.010548
0.032407
0.038286
0.070650
0.070948
0.007316
0.038409
0.071074
0.071144
0.068150
0.075074
0.027508
0.018858
0.014781
0.045873
0.023867
0.022684
0.034115
0.023206
0.063149
0.060589
0.034687
0.008207
0.016827
0.041707
0.060336
0.046351
0.023012
0.056306
0.052586
0.068978
0.065948
0.072286
0.110639
0.025355
0.020137
0.016857
0.023528
0.013405
0.031370
0.024067
0.022417
0.016854
0.022228
0.041448
0.025772
0.028348
0.055885
0.010699
0.017254
0.046412
0.050152
0.057612
0.076046
0.021883
0.027525
0.022190
0.012847
0.012581
0.060453
0.161992
0.138640
0.133715
0.106697
0.038185
0.019589
0.039175
0.022505
0.019516
0.049913
0.044018
0.007594
0.038788
0.030744
0.057959
0.029105
0.044147
0.048253
0.029082
0.044593
0.036743
0.045372
0.013520
0.020710
0.014892
0.011220
0.024072
0.024058
0.012974
0.029607
0.056392
0.052085
0.027149
0.028896
0.051470
0.084018
0.070383
0.041212
0.014044
0.026808
0.023098
0.066379
0.049933
0.035115
0.083524
0.018215
0.013006
0.024972
0.023639
0.040148
0.029754
0.041748
0.157238
0.154478
0.116929
0.145094
0.060686
0.043696
0.063408
0.029841
0.007496
0.034327
0.044288
0.035735
0.027729
0.014507
0.011433
0.015548
0.008999
0.028269
0.050581
0.039517
0.021849
0.031399
0.034360
0.038211
0.068658
0.063090
0.049988
0.082665
0.046282
0.036400
0.044867
0.011732
0.038298
0.045524
0.047587
0.056871
0.019766
0.075292
0.049956
0.065820
0.049526
0.040106
0.022812
0.028947
0.073939
0.055392
0.062602
0.025767
0.056193
0.017015
0.007924
0.063635
0.052946
0.013748
0.016450
0.027732
0.024822
0.023588
0.038042
0.026247
0.052774
0.032222
0.038612
0.006251
0.019534
0.013572
0.026190
0.089171
0.106325
0.078812
0.061262
0.006875
0.013179
0.010510
0.019970
0.193085
0.079893
0.082310
0.081793
0.061964
0.035324
0.111048
0.114753
0.094228
0.053226
0.006798
0.200687
0.164536
0.087386
0.136009
0.057074
0.065112
0.025187
0.051647
0.050427
0.051125
0.052967
0.189897
0.055790
0.110177
0.121638
0.084688
0.100635
0.059613
0.035221
0.065958
0.008325
0.053820
0.170966
0.012167
0.121684
0.123064
0.040315
0.043830
0.168195
0.006006
0.018786
0.009141
0.017656
0.027916
0.054640
0.071350
0.071054
0.075874
0.015516
0.015930
0.008144
0.017394
0.051173
0.017531
0.040234
0.031704
0.038842
0.043552
0.035877
0.029464
0.039843
0.032342
0.015616
0.016826
0.043604
0.066270
0.053363
0.058736
0.042225
0.030472
0.048852
0.021643
0.045082
0.020521
0.053376
0.058307
0.044949
0.041840
0.045408
0.038718
0.067367
0.049903
0.056168
0.042629
0.025681
0.035297
0.068817
0.056908
0.011608
0.019676
0.008859
0.021272
0.072731
0.040719
0.049131
0.038686
0.024677
0.023406
0.020650
0.009764
0.025993
0.026401
0.037955
0.037220
0.010019
0.028656
0.061026
0.044114
0.075540
0.074974
0.023629
0.030178
0.023030
0.044751
0.044398
0.068395
0.043855
0.058986
0.061129
0.063121
0.015718
0.079128
0.025596
0.063187
0.025453
0.022622
0.032202
0.051507
0.019874
0.027090
0.029441
0.009341
0.021060
0.050728
0.047532
0.037655
0.059141
0.042470
0.048439
0.040666
0.013916
0.007666
0.046247
0.034093
0.014201
0.036459
0.021520
0.009184
0.030074
0.026199
0.070174
0.065473
0.078735
0.011584
0.033804
0.080008
0.013255
0.020661
0.010959
0.018440
0.113665
0.111409
0.104744
0.080329
0.019137
0.033762
0.032559
0.025258
0.041861
0.046048
0.039525
0.018667
0.012220
0.026057
0.025503
0.039871
0.050413
0.042576
0.028839
0.014688
0.043187
0.076875
0.080708
0.054105
0.082009
0.076529
0.035640
0.027438
0.010891
0.026334
0.057226
0.024867
0.061062
0.064139
0.070442
0.075840
0.087454
0.074392
0.033799
0.027961
0.036392
0.020428
0.095792
0.128995
0.091865
0.070752
0.029981
0.039402
0.037998
0.028840
0.038501
0.068979
0.034605
0.060309
0.032564
0.074669
0.009824
0.048964
0.020150
0.055593
0.044094
0.037017
0.031758
0.067235
0.040806
0.071388
0.042921
0.064860
0.064522
0.052018
0.062951
0.034580
0.052496
0.053489
0.047119
0.035009
0.016851
0.021366
0.025619
0.010356
0.008498
0.014547
0.026843
0.039781
0.023807
0.049251
0.055148
0.046699
0.049556
0.034219
0.038215
0.032158
0.020398
0.020594
0.013738
0.030680
0.032498
0.056321
0.048585
0.045951
0.011779
0.005997
0.006681
0.017813
0.041378
0.045754
0.039208
0.014310
0.019175
0.009746
0.051924
0.010576
0.013301
0.046207
0.040981
0.051544
0.032259
0.009287
0.030380
0.041785
0.027762
0.126753
0.109336
0.126017
0.092070
0.028112
0.031608
0.042043
0.065468
0.052168
0.042136
0.034895
0.012091
0.047793
0.070916
0.006695
0.007240
0.056437
0.043430
0.010863
0.049639
0.060765
0.060773
0.028184
0.041762
0.029035
0.042487
0.030321
0.039274
0.067137
0.058773
0.017460
0.029954
0.020319
0.042503
0.071513
0.067243
0.050481
0.010051
0.019566
0.035471
0.028630
0.049282
0.014567
0.027967
0.016694
0.014552
0.035846
0.054938
0.096027
0.060074
0.065658
0.092333
0.091570
0.086247
0.011529
0.070086
0.012418
0.063734
0.080900
0.078154
0.085517
0.007409
0.009896
0.032034
0.015423
0.038838
0.011589
0.071354
0.070776
0.008903
0.039785
0.072333
0.071685
0.077754
0.071298
0.027407
0.016470
0.046969
0.029210
0.025555
0.040825
0.016725
0.057584
0.062431
0.032130
0.016420
0.018849
0.042909
0.059626
0.047852
0.019660
0.031818
0.026137
0.069907
0.067069
0.066443
0.107096
0.030533
0.026107
0.017974
0.017329
0.021650
0.033796
0.025694
0.018086
0.018808
0.017808
0.039444
0.022319
0.009100
0.016660
0.044934
0.051101
0.056201
0.075586
0.014292
0.027354
0.015235
0.158760
0.134749
0.133714
0.104748
0.046993
0.038543
0.018612
0.038564
0.027559
0.024137
0.061285
0.044898
0.020624
0.041385
0.030053
0.060034
0.026933
0.046765
0.049893
0.029207
0.041873
0.034806
0.044067
0.014136
0.014530
0.020401
0.049685
0.018260
0.013423
0.021477
0.029579
0.057555
0.049820
0.023602
0.057001
0.052046
0.078761
0.074364
0.024374
0.014646
0.026059
0.027669
0.024206
0.032800
0.051417
0.015527
0.015355
0.024880
0.019083
0.038532
0.031825
0.021845
0.042548
0.155151
0.154243
0.115116
0.148388
0.059745
0.042907
0.062208
0.038033
0.030642
0.012282
0.034321
0.044704
0.027578
0.009092
0.010748
0.015140
0.006700
0.030357
0.019597
0.012019
0.023251
0.030734
0.033813
0.038355
0.067849
0.063884
0.028179
0.050554
0.046253
0.037419
0.043384
0.016147
0.039931
0.048503
0.046816
0.058141
0.031723
0.076818
0.046824
0.067738
0.054284
0.037671
0.013975
0.028781
0.076251
0.056934
0.028368
0.056860
0.019535
0.008265
0.071321
0.058271
0.065622
0.052325
0.019526
0.007315
0.018542
0.021098
0.024086
0.038280
0.024133
0.052347
0.031988
0.036637
0.006340
0.019090
0.016076
0.088162
0.102876
0.077508
0.059447
0.019187
0.019549
0.070185
0.069114
0.142004
0.009365
0.102064
0.113360
0.095095
0.060576
0.030172
0.050659
0.063650
0.069243
0.020724
0.132867
0.059330
0.103801
0.077646
0.121198
0.062362
0.005638
