# vtk DataFile Version 2.0
Unstructured Grid Example
ASCII
DATASET UNSTRUCTURED_GRID
POINTS 1221 float
0.001896 -0.000605 -0.004731 
0.998893 -0.001755 0.002419 
0.999325 1.000620 0.000465 
0.001228 1.001611 0.000214 
-0.000702 -0.000355 0.045267 
1.001320 0.001904 0.052407 
1.001001 0.998723 0.050467 
-0.001645 0.998692 0.050224 
-0.000841 0.049674 0.045225 
-0.000824 0.099578 0.045415 
-0.000850 0.149441 0.046075 
-0.000662 0.199735 0.047271 
-0.000220 0.249524 0.048679 
-0.000075 0.299494 0.050441 
0.000122 0.349381 0.052616 
0.000939 0.399435 0.055529 
0.001455 0.449654 0.058291 
0.001672 0.500161 0.059719 
0.001772 0.550705 0.059331 
0.001661 0.601346 0.057178 
0.000871 0.651899 0.052603 
0.000039 0.701796 0.048004 
-0.000575 0.750974 0.044216 
-0.000763 0.800287 0.042594 
-0.001081 0.849517 0.042590 
-0.001351 0.899035 0.044558 
-0.001559 0.948729 0.047271 
0.001470 0.049448 -0.004743 
0.001196 0.099644 -0.004531 
0.000637 0.149908 -0.003943 
0.000108 0.200217 -0.002589 
-0.000405 0.250331 -0.001277 
-0.000541 0.300756 0.000317 
-0.000675 0.351184 0.002691 
-0.001111 0.401351 0.005547 
-0.001277 0.450894 0.008231 
-0.001275 0.500591 0.009662 
-0.001059 0.549895 0.009260 
-0.001079 0.599326 0.007264 
-0.000112 0.648737 0.002871 
0.000313 0.698854 -0.002028 
0.000960 0.749320 -0.005655 
0.001144 0.800082 -0.007646 
0.001139 0.850763 -0.007321 
0.001202 0.901406 -0.005442 
0.001280 0.951614 -0.002723 
0.000597 -0.000472 0.020310 
-0.000205 1.000155 0.025216 
0.049356 -0.000048 0.048055 
0.099301 0.000174 0.051060 
0.149586 0.000429 0.053314 
0.200154 0.000222 0.054377 
0.250583 0.000268 0.054296 
0.301390 0.000039 0.052497 
0.351521 -0.000887 0.048675 
0.402165 -0.001344 0.043979 
0.451818 -0.001822 0.039712 
0.500900 -0.002031 0.037161 
0.550007 -0.002200 0.037323 
0.599333 -0.001742 0.039575 
0.648493 -0.001064 0.044518 
0.698479 -0.000162 0.050323 
0.748868 0.000725 0.054863 
0.799961 0.001071 0.057645 
0.850620 0.001350 0.058127 
0.900992 0.001407 0.056725 
0.951283 0.001785 0.054737 
0.051899 -0.000385 -0.001896 
0.101748 -0.000392 0.001017 
0.151092 -0.000240 0.003279 
0.200456 -0.000074 0.004357 
0.250162 0.000022 0.004283 
0.299202 0.000212 0.002632 
0.348666 0.000676 -0.001411 
0.398482 0.001240 -0.005907 
0.448941 0.001723 -0.010315 
0.499838 0.002023 -0.012761 
0.550702 0.002001 -0.012706 
0.601224 0.001786 -0.010182 
0.652124 0.001118 -0.005829 
0.702152 0.000530 0.000285 
0.751376 -0.000475 0.005264 
0.800420 -0.001061 0.007558 
0.849524 -0.001384 0.008082 
0.899151 -0.001549 0.006756 
0.948899 -0.001738 0.004718 
1.000102 0.000073 0.027392 
1.001277 0.051813 0.048689 
1.001125 0.101446 0.045041 
1.000944 0.150540 0.042607 
1.000727 0.199866 0.042108 
1.000659 0.249169 0.043385 
0.999732 0.298612 0.046692 
0.999023 0.347586 0.052786 
0.998242 0.397820 0.058720 
0.997719 0.448641 0.062979 
0.997810 0.499772 0.063834 
0.997947 0.550636 0.061571 
0.998775 0.601532 0.056919 
0.999795 0.651409 0.050608 
1.000427 0.700185 0.046825 
1.000699 0.749889 0.044853 
1.000762 0.799624 0.044222 
1.000836 0.849188 0.044995 
1.000791 0.898936 0.046628 
1.000948 0.948773 0.048548 
0.998889 0.048307 -0.001348 
0.998867 0.098409 -0.004989 
0.998988 0.149289 -0.007424 
0.999123 0.199872 -0.007845 
0.999119 0.250596 -0.006638 
0.999845 0.301633 -0.003265 
1.000198 0.351627 0.003002 
1.000948 0.401795 0.008704 
1.001467 0.450607 0.012913 
1.001854 0.499234 0.013784 
1.002018 0.548649 0.011611 
1.001627 0.597884 0.006793 
1.000518 0.648144 0.000984 
0.999972 0.698901 -0.003284 
0.999717 0.749415 -0.005103 
0.999489 0.799976 -0.005633 
0.999330 0.850472 -0.005066 
0.999314 0.900610 -0.003366 
0.999284 0.950668 -0.001477 
1.000164 0.999676 0.025460 
0.950980 0.998820 0.052088 
0.900791 0.999131 0.053555 
0.850367 0.999400 0.054597 
0.800003 0.999700 0.054810 
0.749450 0.999913 0.054089 
0.698959 1.000240 0.052178 
0.648615 1.000365 0.048777 
0.597851 1.001083 0.044712 
0.548089 1.001024 0.040600 
0.498993 1.001101 0.038351 
0.450144 1.001052 0.038656 
0.400988 1.000889 0.041051 
0.351380 1.000423 0.045790 
0.301089 1.000100 0.050576 
0.250591 0.999619 0.054636 
0.199884 0.999356 0.056717 
0.149181 0.999319 0.057170 
0.098652 0.999024 0.055434 
0.048381 0.998763 0.053044 
0.949363 1.000610 0.002070 
0.899429 1.000670 0.003583 
0.849695 1.000524 0.004650 
0.799889 1.000511 0.004725 
0.750234 1.000437 0.004130 
0.700644 1.000198 0.002327 
0.650904 1.000026 -0.001159 
0.600884 0.999078 -0.005341 
0.550735 0.998551 -0.009416 
0.499935 0.998295 -0.011607 
0.449168 0.998572 -0.011452 
0.398524 0.998655 -0.008743 
0.348235 0.999078 -0.004235 
0.298104 0.999684 0.000528 
0.248810 1.000399 0.004607 
0.199692 1.000957 0.007044 
0.150269 1.000996 0.007073 
0.100873 1.001423 0.005525 
0.051145 1.001565 0.003004 
0.024438 1.000511 0.020477 
0.018989 0.999563 0.036759 
0.975658 0.999916 0.020147 
0.980720 0.999298 0.036529 
0.481051 0.999693 0.013151 
0.774890 1.000148 0.029622 
0.674485 1.000195 0.025665 
0.525160 0.999682 0.014178 
0.724753 1.000235 0.028507 
0.624316 1.000377 0.021785 
0.074775 1.000196 0.029406 
0.224876 1.000006 0.031189 
0.574476 0.999841 0.017395 
0.174672 1.000236 0.032215 
0.124748 1.000264 0.031490 
0.875072 0.999987 0.029199 
0.824910 1.000070 0.029819 
0.374586 0.999787 0.018184 
0.918452 0.999845 0.028071 
0.274824 0.999883 0.028005 
0.324728 0.999808 0.023181 
0.424693 0.999727 0.014678 
0.499981 0.499701 0.049631 
0.291912 0.295232 0.048763 
0.708100 0.705100 0.050266 
0.709386 0.291218 0.050891 
0.290767 0.708857 0.051688 
0.501151 0.782063 0.053656 
0.783789 0.498246 0.045178 
0.499327 0.222967 0.054796 
0.224996 0.502431 0.044850 
0.167729 0.171009 0.050937 
0.831405 0.170103 0.049524 
0.830777 0.830691 0.049930 
0.168444 0.830038 0.050862 
0.564187 0.640167 0.053520 
0.435923 0.359793 0.050886 
0.642984 0.438221 0.047259 
0.353100 0.566348 0.047868 
0.639507 0.847384 0.052765 
0.360905 0.153424 0.052914 
0.151742 0.360446 0.047729 
0.845735 0.359378 0.048203 
0.845981 0.641480 0.047087 
0.641426 0.152718 0.052083 
0.358618 0.846845 0.050420 
0.154420 0.634870 0.048705 
0.678728 0.581395 0.047051 
0.560808 0.331404 0.053700 
0.439287 0.668650 0.054013 
0.321763 0.420207 0.045395 
0.532904 0.883041 0.047444 
0.465282 0.116373 0.048336 
0.880191 0.465635 0.053142 
0.121262 0.465576 0.050757 
0.744192 0.896616 0.052983 
0.107754 0.258337 0.048700 
0.258786 0.098153 0.053639 
0.896886 0.255607 0.045902 
0.890130 0.736925 0.046960 
0.737376 0.110607 0.052891 
0.262679 0.889514 0.053013 
0.110073 0.738875 0.047502 
0.601415 0.740056 0.054570 
0.398451 0.260304 0.053283 
0.744974 0.405086 0.045843 
0.251941 0.597233 0.046754 
0.598776 0.520761 0.048250 
0.397656 0.474662 0.047676 
0.612138 0.254325 0.054760 
0.387919 0.745630 0.053839 
0.097184 0.094970 0.049723 
0.903185 0.095593 0.050225 
0.905667 0.901826 0.050031 
0.097687 0.904877 0.050491 
0.436584 0.903792 0.045296 
0.901835 0.563616 0.052534 
0.562979 0.095373 0.046729 
0.098537 0.563637 0.052590 
0.258386 0.202689 0.051669 
0.742208 0.797322 0.051432 
0.797328 0.258439 0.048651 
0.208838 0.745707 0.050663 
0.195742 0.279380 0.048186 
0.798537 0.716040 0.048161 
0.714931 0.206659 0.052582 
0.285710 0.793513 0.052520 
0.501899 0.412126 0.050473 
0.497188 0.587922 0.051903 
0.240732 0.365415 0.045764 
0.759492 0.634284 0.046936 
0.689986 0.500732 0.045013 
0.646413 0.346109 0.050989 
0.308516 0.504449 0.044923 
0.353761 0.653847 0.051591 
0.079657 0.183301 0.048292 
0.176648 0.084644 0.053108 
0.817776 0.918944 0.052969 
0.919923 0.182604 0.045221 
0.917811 0.820364 0.046994 
0.821714 0.083687 0.053904 
0.080071 0.817518 0.045919 
0.184682 0.913625 0.054369 
0.652614 0.655220 0.050857 
0.347528 0.344729 0.048199 
0.514126 0.696493 0.055362 
0.485853 0.303943 0.054403 
0.609219 0.918472 0.048647 
0.390396 0.082000 0.049034 
0.079184 0.394528 0.051777 
0.916016 0.388945 0.053436 
0.925293 0.660292 0.048655 
0.659957 0.074390 0.048556 
0.340161 0.925216 0.048472 
0.074964 0.662424 0.050545 
0.431186 0.822479 0.050954 
0.820450 0.566028 0.046618 
0.568643 0.177063 0.053056 
0.180995 0.566992 0.047551 
0.190660 0.431436 0.045863 
0.573397 0.819077 0.052804 
0.426693 0.178412 0.053180 
0.820338 0.427001 0.047822 
0.565672 0.458110 0.049235 
0.435229 0.541689 0.049692 
0.774213 0.331666 0.047724 
0.225761 0.667972 0.048982 
0.667810 0.781283 0.053063 
0.333050 0.218604 0.052641 
0.676388 0.930981 0.051633 
0.068379 0.317987 0.049965 
0.323006 0.069850 0.052053 
0.929799 0.321365 0.048650 
0.746017 0.559536 0.045085 
0.447736 0.736407 0.054438 
0.552097 0.263318 0.055234 
0.614754 0.594397 0.050090 
0.385590 0.405745 0.047694 
0.258586 0.443223 0.044476 
0.585544 0.393545 0.050768 
0.414515 0.606537 0.051340 
0.450314 0.427762 0.049308 
0.548624 0.571899 0.051155 
0.484456 0.935434 0.042435 
0.932631 0.515185 0.057584 
0.515498 0.063231 0.043027 
0.066906 0.515671 0.055433 
0.499368 0.839454 0.049997 
0.836307 0.507592 0.048432 
0.500399 0.151199 0.051268 
0.154921 0.501081 0.048664 
0.696725 0.842978 0.052810 
0.303780 0.157046 0.053319 
0.842216 0.302596 0.046998 
0.149532 0.702324 0.048861 
0.159306 0.231461 0.049348 
0.842462 0.773082 0.048234 
0.773497 0.158328 0.051743 
0.226589 0.841786 0.052630 
0.670309 0.238359 0.053498 
0.329955 0.762205 0.053104 
0.697186 0.356449 0.048680 
0.303010 0.643543 0.049613 
0.938570 0.606947 0.052553 
0.606353 0.058969 0.044704 
0.394293 0.940423 0.044362 
0.061908 0.607248 0.053738 
0.700664 0.433888 0.045458 
0.303757 0.557833 0.046050 
0.053686 0.054064 0.047858 
0.946681 0.055674 0.051049 
0.946693 0.944522 0.050261 
0.053133 0.944819 0.050254 
0.772663 0.945938 0.053877 
0.055511 0.232249 0.048408 
0.227077 0.054520 0.054146 
0.945834 0.771321 0.045573 
0.771254 0.055512 0.055102 
0.229140 0.944548 0.054946 
0.947230 0.227272 0.043908 
0.054391 0.772242 0.044749 
0.219737 0.160615 0.052293 
0.775594 0.847252 0.051766 
0.847651 0.224859 0.047550 
0.155120 0.774465 0.049071 
0.552166 0.948712 0.043642 
[...]
POINT_DATA 1221
SCALARS u float 1
LOOKUP_TABLE default
0.074382
0.046181
0.014893
0.029515
0.069526
0.048410
0.024466
0.030625
0.070417
0.067787
0.058760
0.040879
0.020597
0.009797
0.039000
0.081672
0.122088
0.142924
0.138015
0.108536
0.048364
0.038914
0.085401
0.107973
0.108735
0.082443
0.049133
0.072404
0.068098
0.057899
0.037684
0.020001
0.014233
0.043708
0.084292
0.121396
0.141480
0.135075
0.106866
0.045476
0.034059
0.083703
0.112040
0.107933
0.083292
0.049474
0.068856
0.004877
0.029698
0.018571
0.048801
0.063544
0.062945
0.041416
0.031934
0.094747
0.153685
0.188819
0.186452
0.153465
0.083821
0.022661
0.073107
0.111864
0.119719
0.100602
0.075681
0.039281
0.029852
0.050201
0.063497
0.062111
0.039980
0.029797
0.090193
0.152316
0.187246
0.186671
0.150841
0.091352
0.032374
0.079136
0.110759
0.119024
0.101200
0.074586
0.034712
0.037328
0.076611
0.108293
0.114865
0.097079
0.052135
0.055263
0.132721
0.191983
0.202994
0.170542
0.104216
0.022438
0.046499
0.075290
0.084627
0.074466
0.052506
0.030775
0.035250
0.077631
0.109065
0.114412
0.097414
0.052947
0.049566
0.129515
0.188528
0.201847
0.171894
0.105766
0.031348
0.050190
0.074544
0.081966
0.074370
0.050555
0.025674
0.008500
0.037540
0.054258
0.067398
0.069830
0.059807
0.035150
0.027294
0.084184
0.139790
0.170186
0.165107
0.131104
0.064489
0.017909
0.067953
0.097800
0.105048
0.082352
0.053081
0.032610
0.053464
0.067956
0.068894
0.060280
0.035101
0.021300
0.079586
0.138464
0.170009
0.167674
0.129960
0.067814
0.028884
0.069197
0.103106
0.103577
0.083645
0.051809
0.024256
0.023533
0.018275
0.020447
0.171999
0.067027
0.012513
0.157109
0.051060
0.047947
0.063999
0.089702
0.110583
0.104712
0.094191
0.060854
0.069859
0.099002
0.044595
0.043658
0.026794
0.149696
0.006897
0.019294
0.007393
0.015236
0.025203
0.053894
0.070617
0.069664
0.075529
0.016086
0.010981
0.008022
0.015462
0.052019
0.015481
0.041461
0.032711
0.041227
0.042541
0.033563
0.032193
0.042591
0.032847
0.009172
0.020875
0.043248
0.054312
0.058655
0.066771
0.041847
0.032494
0.054744
0.022488
0.043258
0.019070
0.053015
0.059560
0.044650
0.042333
0.043894
0.036674
0.066517
0.048486
0.060721
0.047938
0.026084
0.034446
0.069397
0.055789
0.007675
0.016553
0.010677
0.016607
0.069037
0.041466
0.052484
0.044801
0.025147
0.021447
0.020019
0.010676
0.027753
0.027128
0.037650
0.036920
0.007868
0.028251
0.061402
0.044705
0.072533
0.019552
0.073955
0.026132
0.026190
0.045700
0.043217
0.070190
0.045333
0.058985
0.060200
0.064540
0.016564
0.027442
0.077720
0.064202
0.030673
0.024312
0.028236
0.054188
0.020291
0.024228
0.023149
0.017901
0.017096
0.049675
0.045967
0.041101
0.060067
0.042332
0.046826
0.036817
0.013974
0.007613
0.033597
0.015849
0.044559
0.038577
0.028928
0.002858
0.030158
0.028216
0.071376
0.064321
0.075874
0.011324
0.034003
0.080052
0.014622
0.021086
0.011796
0.017282
0.110260
0.113877
0.105521
0.082319
0.018077
0.033176
0.023790
0.027818
0.040751
0.048252
0.043666
0.016921
0.010964
0.026666
0.025981
0.038322
0.050990
0.045366
0.022222
0.012094
0.040459
0.079469
0.082739
0.059559
0.066634
0.058393
0.032818
0.031630
0.019601
0.025973
0.056198
0.023175
0.060275
0.065026
0.074796
0.071887
0.088903
0.077047
0.034066
0.026165
0.035665
0.015873
0.094253
0.133645
0.096561
0.071908
0.029326
0.040077
0.038294
0.026944
0.075276
0.071000
0.033756
0.057803
0.029672
0.056385
0.022727
0.048640
0.019951
0.035314
0.013428
0.036384
0.031117
0.065977
0.040839
0.071998
0.044705
0.062363
0.066489
0.050740
0.062148
0.064623
0.037369
0.052336
0.053080
0.078391
0.021742
0.020228
0.032608
0.011939
0.007534
0.013473
0.028680
0.040252
0.024333
0.056921
0.051228
0.048857
0.048876
0.028407
0.039858
0.027312
0.021099
0.021872
0.015884
0.031094
0.031976
0.059860
0.046302
0.045499
0.013628
0.007090
0.006230
0.015790
0.040371
0.043017
0.033948
0.014580
0.018075
0.022334
0.052931
0.012885
0.013402
0.032326
0.021975
0.046018
0.041898
0.052299
0.032139
0.014354
0.033004
0.043172
0.032078
0.124540
0.109978
0.127004
0.095933
0.030226
0.033596
0.045445
0.061391
0.054855
0.045516
0.037981
0.008090
0.047982
0.072076
0.007778
0.007225
0.056583
0.042441
0.007053
0.049598
0.061415
0.027242
0.042673
0.027486
0.042361
0.030895
0.080168
0.037313
0.023518
0.028793
0.024496
0.048892
0.071909
0.067520
0.051123
0.011434
0.019087
0.033225
0.023546
0.049619
0.026324
0.016301
0.013266
0.009520
0.039767
0.053993
0.097976
0.057289
0.066691
0.095301
0.091530
0.088070
0.076270
0.053891
0.016644
0.082786
0.078126
0.006688
0.010548
0.032407
0.038286
0.070650
0.070948
0.007316
0.038409
0.071074
0.071144
0.068150
0.075074
0.027508
0.018858
0.014781
0.045873
0.023867
0.022684
0.034115
0.023206
0.063149
0.060589
0.034687
0.008207
0.016827
0.041707
0.060336
0.046351
0.023012
0.056306
0.052586
0.068978
0.065948
0.072286
0.110639
0.025355
0.020137
0.016857
0.023528
0.013405
0.031370
0.024067
0.022417
0.016854
0.022228
0.041448
0.025772
0.028348
0.055885
0.010699
0.017254
0.046412
0.050152
0.057612
0.076046
0.021883
0.027525
0.022190
0.012847
0.012581
0.060453
0.161992
0.138640
0.133715
0.106697
0.038185
0.019589
0.039175
0.022505
0.019516
0.049913
0.044018
0.007594
0.038788
0.030744
0.057959
0.029105
0.044147
0.048253
0.029082
0.044593
0.036743
0.045372
0.013520
0.020710
0.014892
0.011220
0.024072
0.024058
0.012974
0.029607
0.056392
0.052085
0.027149
0.028896
0.051470
0.084018
0.070383
0.041212
0.014044
0.026808
0.023098
0.066379
0.049933
0.035115
0.083524
0.018215
0.013006
0.024972
0.023639
0.040148
0.029754
0.041748
0.157238
0.154478
0.116929
0.145094
0.060686
0.043696
0.063408
0.029841
0.007496
0.034327
0.044288
0.035735
0.027729
0.014507
0.011433
0.015548
0.008999
0.028269
0.050581
0.039517
0.021849
0.031399
0.034360
0.038211
0.068658
0.063090
0.049988
0.082665
0.046282
0.036400
0.044867
0.011732
0.038298
0.045524
0.047587
0.056871
0.019766
0.075292
0.049956
0.065820
0.049526
0.040106
0.022812
0.028947
0.073939
0.055392
0.062602
0.025767
0.056193
0.017015
0.007924
0.063635
0.052946
0.013748
0.016450
0.027732
0.024822
0.023588
0.038042
0.026247
0.052774
0.032222
0.038612
0.006251
0.019534
0.013572
0.026190
0.089171
0.106325
0.078812
0.061262
0.006875
0.013179
0.010510
0.019970
0.193085
0.079893
0.082310
0.081793
0.061964
0.035324
0.111048
0.114753
0.094228
0.053226
0.006798
0.200687
0.164536
0.087386
0.136009
0.057074
0.065112
0.025187
0.051647
0.050427
0.051125
0.052967
0.189897
0.055790
0.110177
0.121638
0.084688
0.100635
0.059613
0.035221
0.065958
0.008325
0.053820
0.170966
0.012167
0.121684
0.123064
0.040315
0.043830
0.168195
0.006006
0.018786
0.009141
0.017656
0.027916
0.054640
0.071350
0.071054
0.075874
0.015516
0.015930
0.008144
0.017394
0.051173
0.017531
0.040234
0.031704
0.038842
0.043552
0.035877
0.029464
0.039843
0.032342
0.015616
0.016826
0.043604
0.066270
0.053363
0.058736
0.042225
0.030472
0.048852
0.021643
0.045082
0.020521
0.053376
0.058307
0.044949
0.041840
0.045408
0.038718
0.067367
0.049903
0.056168
0.042629
0.025681
0.035297
0.068817
0.056908
0.011608
0.019676
0.008859
0.021272
0.072731
0.040719
0.049131
0.038686
0.024677
0.023406
0.020650
0.009764
0.025993
0.026401
0.037955
0.037220
0.010019
0.028656
0.061026
0.044114
0.075540
0.074974
0.023629
0.030178
0.023030
0.044751
0.044398
0.068395
0.043855
0.058986
0.061129
0.063121
0.015718
0.079128
0.025596
0.063187
0.025453
0.022622
0.032202
0.051507
0.019874
0.027090
0.029441
0.009341
0.021060
0.050728
0.047532
0.037655
0.059141
0.042470
0.048439
0.040666
0.013916
0.007666
0.046247
0.034093
0.014201
0.036459
0.021520
0.009184
0.030074
0.026199
0.070174
0.065473
0.078735
0.011584
0.033804
0.080008
0.013255
0.020661
0.010959
0.018440
0.113665
0.111409
0.104744
0.080329
0.019137
0.033762
0.032559
0.025258
0.041861
0.046048
0.039525
0.018667
0.012220
0.026057
0.025503
0.039871
0.050413
0.042576
0.028839
0.014688
0.043187
0.076875
0.080708
0.054105
0.082009
0.076529
0.035640
0.027438
0.010891
0.026334
0.057226
0.024867
0.061062
0.064139
0.070442
0.075840
0.087454
0.074392
0.033799
0.027961
0.036392
0.020428
0.095792
0.128995
0.091865
0.070752
0.029981
0.039402
0.037998
0.028840
0.038501
0.068979
0.034605
0.060309
0.032564
0.074669
0.009824
0.048964
0.020150
0.055593
0.044094
0.037017
0.031758
0.067235
0.040806
0.071388
0.042921
0.064860
0.064522
0.052018
0.062951
0.034580
0.052496
0.053489
0.047119
0.035009
0.016851
0.021366
0.025619
0.010356
0.008498
0.014547
0.026843
0.039781
0.023807
0.049251
0.055148
0.046699
0.049556
0.034219
0.038215
0.032158
0.020398
0.020594
0.013738
0.030680
0.032498
0.056321
0.048585
0.045951
0.011779
0.005997
0.006681
0.017813
0.041378
0.045754
0.039208
0.014310
0.019175
0.009746
0.051924
0.010576
0.013301
0.046207
0.040981
0.051544
0.032259
0.009287
0.030380
0.041785
0.027762
0.126753
0.109336
0.126017
0.092070
0.028112
0.031608
0.042043
0.065468
0.052168
0.042136
0.034895
0.012091
0.047793
0.070916
0.006695
0.007240
0.056437
0.043430
0.010863
0.049639
0.060765
0.060773
0.028184
0.041762
0.029035
0.042487
0.030321
0.039274
0.067137
0.058773
0.017460
0.029954
0.020319
0.042503
0.071513
0.067243
0.050481
0.010051
0.019566
0.035471
0.028630
0.049282
0.014567
0.027967
0.016694
0.014552
0.035846
0.054938
0.096027
0.060074
0.065658
0.092333
0.091570
0.086247
0.011529
0.070086
0.012418
0.063734
0.080900
0.078154
0.085517
0.007409
0.009896
0.032034
0.015423
0.038838
0.011589
0.071354
0.070776
0.008903
0.039785
0.072333
0.071685
0.077754
0.071298
0.027407
0.016470
0.046969
0.029210
0.025555
0.040825
0.016725
0.057584
0.062431
0.032130
0.016420
0.018849
0.042909
0.059626
0.047852
0.019660
0.031818
0.026137
0.069907
0.067069
0.066443
0.107096
0.030533
0.026107
0.017974
0.017329
0.021650
0.033796
0.025694
0.018086
0.018808
0.017808
0.039444
0.022319
0.009100
0.016660
0.044934
0.051101
0.056201
0.075586
0.014292
0.027354
0.015235
0.158760
0.134749
0.133714
0.104748
0.046993
0.038543
0.018612
0.038564
0.027559
0.024137
0.061285
0.044898
0.020624
0.041385
0.030053
0.060034
0.026933
0.046765
0.049893
0.029207
0.041873
0.034806
0.044067
0.014136
0.014530
0.020401
0.049685
0.018260
0.013423
0.021477
0.029579
0.057555
0.049820
0.023602
0.057001
0.052046
0.078761
0.074364
0.024374
0.014646
0.026059
0.027669
0.024206
0.032800
0.051417
0.015527
0.015355
0.024880
0.019083
0.038532
0.031825
0.021845
0.042548
0.155151
0.154243
0.115116
0.148388
0.059745
0.042907
0.062208
0.038033
0.030642
0.012282
0.034321
0.044704
0.027578
0.009092
0.010748
0.015140
0.006700
0.030357
0.019597
0.012019
0.023251
0.030734
0.033813
0.038355
0.067849
0.063884
0.028179
0.050554
0.046253
0.037419
0.043384
0.016147
0.039931
0.048503
0.046816
0.058141
0.031723
0.076818
0.046824
0.067738
0.054284
0.037671
0.013975
0.028781
0.076251
0.056934
0.028368
0.056860
0.019535
0.008265
0.071321
0.058271
0.065622
0.052325
0.019526
0.007315
0.018542
0.021098
0.024086
0.038280
0.024133
0.052347
0.031988
0.036637
0.006340
0.019090
0.016076
0.088162
0.102876
0.077508
0.059447
0.019187
0.019549
0.070185
0.069114
0.142004
0.009365
0.102064
0.113360
0.095095
0.060576
0.030172
0.050659
0.063650
0.069243
0.020724
0.132867
0.059330
0.103801
0.077646
0.121198
0.062362
0.005638
