# vtk DataFile Version 2.0
Unstructured Grid Example
ASCII
DATASET UNSTRUCTURED_GRID
POINTS 1221 float
0.000368 -0.000023 -0.002056 
1.000368 -0.000088 0.012425 
1.000434 0.999912 0.003011 
0.000434 0.999977 -0.011470 
-0.000356 0.000448 0.047944 
0.999644 0.000382 0.062425 
0.999710 1.000382 0.053011 
-0.000290 1.000448 0.038530 
-0.000352 0.050448 0.047473 
-0.000349 0.100448 0.047002 
-0.000346 0.150448 0.046532 
-0.000342 0.200448 0.046061 
-0.000339 0.250448 0.045590 
-0.000336 0.300448 0.045120 
-0.000333 0.350448 0.044649 
-0.000329 0.400448 0.044178 
-0.000326 0.450448 0.043707 
-0.000323 0.500448 0.043237 
-0.000320 0.550448 0.042766 
-0.000316 0.600448 0.042295 
-0.000313 0.650448 0.041825 
-0.000310 0.700448 0.041354 
-0.000307 0.750448 0.040883 
-0.000303 0.800448 0.040413 
-0.000300 0.850448 0.039942 
-0.000297 0.900448 0.039471 
-0.000293 0.950448 0.039001 
0.000372 0.049977 -0.002527 
0.000375 0.099977 -0.002998 
0.000378 0.149977 -0.003468 
0.000382 0.199977 -0.003939 
0.000385 0.249977 -0.004410 
0.000388 0.299977 -0.004880 
0.000391 0.349977 -0.005351 
0.000395 0.399977 -0.005822 
0.000398 0.449977 -0.006293 
0.000401 0.499977 -0.006763 
0.000404 0.549977 -0.007234 
0.000408 0.599977 -0.007705 
0.000411 0.649977 -0.008175 
0.000414 0.699977 -0.008646 
0.000418 0.749977 -0.009117 
0.000421 0.799977 -0.009587 
0.000424 0.849977 -0.010058 
0.000427 0.899977 -0.010529 
0.000431 0.949977 -0.010999 
0.000006 0.000213 0.022944 
0.000072 1.000213 0.013530 
0.049644 0.000445 0.048668 
0.099644 0.000441 0.049392 
0.149644 0.000438 0.050116 
0.199644 0.000435 0.050840 
0.249644 0.000432 0.051564 
0.299644 0.000428 0.052288 
0.349644 0.000425 0.053012 
0.399644 0.000422 0.053736 
0.449644 0.000418 0.054460 
0.499644 0.000415 0.055184 
0.549644 0.000412 0.055908 
0.599644 0.000409 0.056632 
0.649644 0.000405 0.057356 
0.699644 0.000402 0.058080 
0.749644 0.000399 0.058804 
0.799644 0.000396 0.059528 
0.849644 0.000392 0.060253 
0.899644 0.000389 0.060977 
0.949644 0.000386 0.061701 
0.050368 -0.000026 -0.001332 
0.100368 -0.000029 -0.000608 
0.150368 -0.000033 0.000116 
0.200368 -0.000036 0.000840 
0.250368 -0.000039 0.001564 
0.300368 -0.000042 0.002288 
0.350368 -0.000046 0.003012 
0.400368 -0.000049 0.003736 
0.450368 -0.000052 0.004460 
0.500368 -0.000056 0.005184 
0.550368 -0.000059 0.005908 
0.600368 -0.000062 0.006632 
0.650368 -0.000065 0.007356 
0.700368 -0.000069 0.008080 
0.750368 -0.000072 0.008804 
0.800368 -0.000075 0.009528 
0.850368 -0.000078 0.010253 
0.900368 -0.000082 0.010977 
0.950368 -0.000085 0.011701 
1.000006 0.000147 0.037425 
0.999648 0.050382 0.061954 
0.999651 0.100382 0.061483 
0.999654 0.150382 0.061013 
0.999658 0.200382 0.060542 
0.999661 0.250382 0.060071 
0.999664 0.300382 0.059601 
0.999667 0.350382 0.059130 
0.999671 0.400382 0.058659 
0.999674 0.450382 0.058189 
0.999677 0.500382 0.057718 
0.999680 0.550382 0.057247 
0.999684 0.600382 0.056777 
0.999687 0.650382 0.056306 
0.999690 0.700382 0.055835 
0.999693 0.750382 0.055365 
0.999697 0.800382 0.054894 
0.999700 0.850382 0.054423 
0.999703 0.900382 0.053952 
0.999707 0.950382 0.053482 
1.000372 0.049912 0.011954 
1.000375 0.099912 0.011483 
1.000378 0.149912 0.011013 
1.000382 0.199912 0.010542 
1.000385 0.249912 0.010071 
1.000388 0.299912 0.009601 
1.000391 0.349912 0.009130 
1.000395 0.399912 0.008659 
1.000398 0.449912 0.008189 
1.000401 0.499912 0.007718 
1.000404 0.549912 0.007247 
1.000408 0.599912 0.006777 
1.000411 0.649912 0.006306 
1.000414 0.699912 0.005835 
1.000418 0.749912 0.005365 
1.000421 0.799912 0.004894 
1.000424 0.849912 0.004423 
1.000427 0.899912 0.003952 
1.000431 0.949912 0.003482 
1.000072 1.000147 0.028011 
0.949710 1.000386 0.052287 
0.899710 1.000389 0.051563 
0.849710 1.000392 0.050839 
0.799710 1.000396 0.050115 
0.749710 1.000399 0.049391 
0.699710 1.000402 0.048667 
0.649710 1.000405 0.047943 
0.599710 1.000409 0.047219 
0.549710 1.000412 0.046495 
0.499710 1.000415 0.045771 
0.449710 1.000418 0.045047 
0.399710 1.000422 0.044322 
0.349710 1.000425 0.043598 
0.299710 1.000428 0.042874 
0.249710 1.000432 0.042150 
0.199710 1.000435 0.041426 
0.149710 1.000438 0.040702 
0.099710 1.000441 0.039978 
0.049710 1.000445 0.039254 
0.950434 0.999915 0.002287 
0.900434 0.999918 0.001563 
0.850434 0.999922 0.000839 
0.800434 0.999925 0.000115 
0.750434 0.999928 -0.000609 
0.700434 0.999931 -0.001333 
0.650434 0.999935 -0.002057 
0.600434 0.999938 -0.002781 
0.550434 0.999941 -0.003505 
0.500434 0.999944 -0.004229 
0.450434 0.999948 -0.004953 
0.400434 0.999951 -0.005678 
0.350434 0.999954 -0.006402 
0.300434 0.999958 -0.007126 
0.250434 0.999961 -0.007850 
0.200434 0.999964 -0.008574 
0.150434 0.999967 -0.009298 
0.100434 0.999971 -0.010022 
0.050434 0.999974 -0.010746 
0.024466 1.000153 0.007771 
0.019713 1.000309 0.024233 
0.975855 1.000091 0.021548 
0.980129 1.000246 0.038141 
0.481739 1.000181 0.020505 
0.775072 1.000162 0.024753 
0.675072 1.000168 0.023305 
0.525813 1.000178 0.021143 
0.725072 1.000165 0.024029 
0.625072 1.000172 0.022581 
0.075072 1.000208 0.014616 
0.225072 1.000198 0.016788 
0.575154 1.000175 0.021858 
0.175072 1.000201 0.016064 
0.125072 1.000204 0.015340 
0.875072 1.000155 0.026201 
0.825072 1.000159 0.025477 
0.375072 1.000188 0.018960 
0.918405 1.000152 0.026829 
0.275072 1.000195 0.017512 
0.325072 1.000191 0.018236 
0.425072 1.000185 0.019684 
0.499677 0.500415 0.050477 
0.291981 0.295379 0.049400 
0.707356 0.705477 0.051554 
0.708738 0.291156 0.055475 
0.290616 0.709674 0.045480 
0.501058 0.781829 0.047848 
0.784131 0.498401 0.054615 
0.499159 0.223662 0.053075 
0.223936 0.503179 0.046458 
0.167872 0.171104 0.048773 
0.830648 0.170075 0.058380 
0.830017 0.831386 0.052145 
0.168706 0.830755 0.042575 
0.563332 0.641032 0.050075 
0.436022 0.359798 0.050879 
0.642114 0.438014 0.053127 
0.353057 0.567461 0.047723 
0.639519 0.847196 0.049238 
0.360421 0.154175 0.051721 
0.150970 0.360995 0.046740 
0.846432 0.360576 0.056815 
0.846005 0.641681 0.054162 
0.641179 0.154013 0.055788 
0.358175 0.846817 0.045167 
0.153475 0.635298 0.044194 
0.677959 0.581882 0.052292 
0.560348 0.331233 0.052949 
0.439006 0.669598 0.048006 
0.321419 0.420775 0.048646 
0.533464 0.882420 0.047370 
0.464884 0.118293 0.053571 
0.881963 0.466039 0.056337 
0.119582 0.466054 0.045297 
0.744013 0.896976 0.050282 
0.107605 0.258692 0.047076 
0.258283 0.098237 0.050768 
0.896238 0.256079 0.058520 
0.889330 0.737424 0.053888 
0.736686 0.110762 0.057578 
0.262668 0.890068 0.043377 
0.109958 0.738956 0.042588 
0.600684 0.740433 0.049680 
0.398670 0.260397 0.051274 
0.744913 0.405029 0.054927 
0.251359 0.598245 0.045961 
0.598065 0.521325 0.051705 
0.397706 0.475417 0.049236 
0.611430 0.254363 0.054412 
0.387789 0.746277 0.046542 
0.097250 0.095235 0.048465 
0.902052 0.095182 0.060119 
0.904910 0.902790 0.052557 
0.098269 0.905868 0.040848 
0.436546 0.903502 0.045768 
0.902763 0.563546 0.055720 
0.562808 0.097329 0.055186 
0.096599 0.563599 0.044046 
0.258329 0.202741 0.049785 
0.741536 0.797666 0.051181 
0.796868 0.258563 0.057058 
0.208732 0.745890 0.043953 
0.195859 0.279404 0.048159 
0.797884 0.716494 0.052761 
0.714300 0.207017 0.056347 
0.285054 0.793814 0.044607 
0.501746 0.412341 0.051337 
0.496930 0.588756 0.049606 
0.240507 0.365827 0.047992 
0.758841 0.634796 0.052965 
0.689235 0.501125 0.053216 
0.645630 0.345715 0.054047 
0.308449 0.505332 0.047662 
0.353720 0.655074 0.046908 
0.079902 0.183787 0.047380 
0.176698 0.084725 0.049714 
0.817296 0.919552 0.051131 
0.918814 0.182797 0.059537 
0.916907 0.821375 0.053497 
0.820637 0.083185 0.059053 
0.080540 0.818034 0.041418 
0.185022 0.914649 0.042021 
0.651582 0.655860 0.051214 
0.347758 0.344992 0.049741 
0.513721 0.696954 0.048830 
0.485634 0.303876 0.052124 
0.609907 0.917583 0.048146 
0.389156 0.083466 0.052802 
0.078061 0.395065 0.045364 
0.916791 0.390311 0.057554 
0.924651 0.660885 0.055120 
0.660146 0.075442 0.056802 
0.339448 0.925435 0.044156 
0.074137 0.661885 0.042795 
0.430899 0.822205 0.046452 
0.820672 0.566274 0.054505 
0.568239 0.178322 0.054503 
0.179248 0.567352 0.045207 
0.190092 0.431946 0.046639 
0.573399 0.818728 0.048548 
0.426339 0.179405 0.052438 
0.821315 0.427313 0.055823 
0.565145 0.457970 0.051825 
0.435006 0.542522 0.049144 
0.773946 0.331628 0.056038 
0.225162 0.668683 0.044918 
0.667255 0.781585 0.050257 
0.332963 0.218817 0.050714 
0.677044 0.930741 0.048994 
0.068214 0.318337 0.045944 
0.322369 0.070093 0.051961 
0.930003 0.323048 0.058379 
0.745383 0.559990 0.053474 
0.447529 0.736817 0.047497 
0.551630 0.263740 0.053458 
0.613807 0.595256 0.051237 
0.385654 0.406350 0.049712 
0.258269 0.443695 0.047516 
0.585110 0.393308 0.052723 
0.414244 0.607522 0.048232 
0.450298 0.428474 0.050440 
0.548302 0.572606 0.050502 
0.484486 0.935106 0.046165 
0.934368 0.515606 0.056629 
0.514868 0.065725 0.054790 
0.064989 0.515663 0.044039 
0.499883 0.838925 0.047293 
0.837625 0.507681 0.055303 
0.499995 0.152655 0.053756 
0.153227 0.501652 0.045449 
0.696376 0.843272 0.050098 
0.303566 0.157237 0.050868 
0.842015 0.303217 0.057291 
0.149036 0.702586 0.043497 
0.159255 0.231646 0.048078 
0.841654 0.773585 0.052858 
0.772847 0.158439 0.057653 
0.226508 0.842392 0.043302 
0.669634 0.238583 0.055403 
0.329705 0.762226 0.045551 
0.696568 0.356125 0.054687 
0.302786 0.644705 0.046268 
0.939302 0.606904 0.055841 
0.606166 0.060791 0.056158 
0.393495 0.940099 0.044800 
0.060001 0.607067 0.043107 
0.699928 0.433705 0.054005 
0.303568 0.559049 0.047086 
0.054069 0.054553 0.048222 
0.945227 0.054495 0.061127 
0.945597 0.945965 0.052740 
0.054234 0.946360 0.039829 
0.772449 0.946385 0.050229 
0.055309 0.232748 0.046563 
0.226524 0.054688 0.050718 
0.944864 0.772019 0.054367 
0.771281 0.055229 0.058602 
0.228674 0.945316 0.042365 
0.946187 0.227474 0.059513 
0.054657 0.772081 0.041476 
0.219642 0.160596 0.049622 
0.775000 0.847887 0.051193 
0.847143 0.225093 0.058101 
0.155337 0.775155 0.042905 
0.552899 0.948214 0.047032 
[...]
POINT_DATA 1221
SCALARS u float 1
LOOKUP_TABLE default
0.021499
0.127911
0.031318
0.118111
0.021963
0.127964
0.031376
0.118154
0.026657
0.031395
0.036162
0.040947
0.045744
0.050550
0.055362
0.060179
0.065001
0.069825
0.074652
0.079481
0.084311
0.089143
0.093976
0.098810
0.103645
0.108481
0.113318
0.026285
0.031088
0.035903
0.040724
0.045550
0.050379
0.055211
0.060045
0.064880
0.069716
0.074554
0.079392
0.084230
0.089069
0.093909
0.098749
0.103589
0.108430
0.113270
0.021273
0.118049
0.014909
0.008555
0.005927
0.010396
0.017090
0.024230
0.031514
0.038861
0.046241
0.053641
0.061053
0.068474
0.075900
0.083331
0.090765
0.098201
0.105640
0.113080
0.120522
0.014227
0.007324
0.003989
0.009444
0.016538
0.023850
0.031228
0.038634
0.046054
0.053483
0.060917
0.068355
0.075795
0.083237
0.090681
0.098125
0.105571
0.113017
0.120463
0.127860
0.123124
0.118285
0.113445
0.108606
0.103768
0.098930
0.094093
0.089256
0.084420
0.079585
0.074751
0.069918
0.065087
0.060258
0.055431
0.050608
0.045789
0.040975
0.036170
0.123071
0.118231
0.113392
0.108553
0.103714
0.098876
0.094039
0.089202
0.084366
0.079530
0.074696
0.069863
0.065032
0.060203
0.055376
0.050552
0.045732
0.040918
0.036112
0.031030
0.024053
0.016841
0.009987
0.005185
0.008065
0.014637
0.021782
0.029081
0.036441
0.043832
0.051240
0.058659
0.066085
0.073516
0.080951
0.088388
0.095828
0.103269
0.110711
0.023970
0.016713
0.009753
0.004683
0.007731
0.014444
0.021645
0.028973
0.036351
0.043753
0.051170
0.058595
0.066026
0.073460
0.080898
0.088338
0.095780
0.103223
0.110667
0.114428
0.115124
0.027429
0.028162
0.046296
0.003128
0.017545
0.039735
0.010164
0.024968
0.106875
0.084527
0.032391
0.091976
0.099425
0.012483
0.005224
0.062182
0.018895
0.077078
0.069630
0.054735
0.007309
0.008339
0.016821
0.056593
0.046828
0.022769
0.047783
0.032125
0.036864
0.013863
0.086398
0.022653
0.076601
0.005376
0.010592
0.032625
0.024059
0.009410
0.018578
0.034014
0.070327
0.043142
0.059807
0.050017
0.059997
0.024170
0.030828
0.021210
0.014995
0.027563
0.037169
0.065414
0.048722
0.005885
0.030630
0.009750
0.087833
0.040337
0.078166
0.068364
0.076467
0.006204
0.014246
0.050973
0.041929
0.018345
0.009580
0.045727
0.035981
0.016828
0.104264
0.026790
0.094337
0.043864
0.059085
0.053656
0.061525
0.006080
0.013204
0.072822
0.062461
0.019776
0.028879
0.065540
0.055754
0.014792
0.006735
0.021414
0.030954
0.033512
0.041995
0.024682
0.032279
0.027572
0.006465
0.012692
0.098280
0.036342
0.093314
0.088483
0.082281
0.013553
0.006164
0.013160
0.022541
0.019769
0.029384
0.048042
0.077907
0.052938
0.070209
0.060373
0.074348
0.036895
0.046654
0.046658
0.049630
0.035036
0.015833
0.025697
0.060151
0.019539
0.010343
0.062360
0.052581
0.005840
0.009252
0.011555
0.042129
0.020966
0.086376
0.036137
0.026308
0.036002
0.013794
0.006258
0.026163
0.028536
0.018982
0.007097
0.007440
0.039810
0.068408
0.049603
0.061595
0.028346
0.054814
0.039047
0.047164
0.005264
0.010577
0.075214
0.067148
0.020581
0.029847
0.078931
0.069134
0.055867
0.046095
0.048526
0.038790
0.060321
0.063611
0.053766
0.071155
0.041557
0.030488
0.019200
0.114627
0.028632
0.104806
0.005602
0.035836
0.009360
0.045220
0.088679
0.078753
0.098029
0.087891
0.006904
0.013301
0.083530
0.073218
0.030979
0.076944
0.040750
0.055792
0.029633
0.038678
0.068234
0.058439
0.013681
0.023492
0.017806
0.008998
0.040380
0.005619
0.009663
0.012371
0.021467
0.009030
0.006104
0.026902
0.008513
0.107180
0.016903
0.103289
0.036633
0.097367
0.094426
0.027377
0.016076
0.041633
0.050844
0.039658
0.029949
0.047164
0.018501
0.027890
0.068493
0.010811
0.019712
0.064889
0.055045
0.016175
0.025480
0.007812
0.016662
0.060808
0.051137
0.080076
0.082637
0.070253
0.012406
0.094372
0.027904
0.084257
0.041717
0.051487
0.023900
0.017858
0.011708
0.020458
0.077986
0.068048
0.049316
0.039565
0.050813
0.051789
0.060617
0.064910
0.039780
0.013760
0.006100
0.040876
0.031143
0.025011
0.034430
0.059569
0.049786
0.021930
0.008972
0.018155
0.078813
0.048536
0.067234
0.058346
0.069126
0.031161
0.087262
0.077255
0.035131
0.061967
0.044998
0.054820
0.039922
0.032816
0.042485
0.013548
0.006026
0.030030
0.008117
0.042945
0.017124
0.093471
0.015714
0.091259
0.081394
0.014954
0.024265
0.033185
0.042270
0.019522
0.049780
0.029205
0.086279
0.019542
0.031329
0.028876
0.019812
0.020429
0.097240
0.087383
0.005773
0.011188
0.005622
0.063302
0.053457
0.033290
0.006003
0.105233
0.009600
0.042836
0.097988
0.095387
0.088130
0.008190
0.017045
0.067325
0.039817
0.021603
0.007058
0.007548
0.033822
0.024185
0.043652
0.027323
0.011185
0.005347
0.020112
0.019891
0.029474
0.029827
0.009939
0.005701
0.017238
0.008556
0.066086
0.057914
0.075946
0.081486
0.011823
0.021825
0.046193
0.056703
0.066506
0.009884
0.091840
0.081712
0.022318
0.031022
0.054307
0.026502
0.055416
0.036247
0.081619
0.036824
0.054257
0.046714
0.053001
0.043525
0.048653
0.053321
0.056738
0.034544
0.027819
0.054550
0.044984
0.022708
0.024238
0.021076
0.011865
0.037242
0.085413
0.075402
0.032658
0.014109
0.023604
0.075388
0.034588
0.025054
0.054614
0.075817
0.047606
0.037811
0.062640
0.067989
0.059385
0.045740
0.072981
0.063172
0.018684
0.024446
0.013063
0.113283
0.022203
0.110780
0.034063
0.103459
0.101079
0.048286
0.005251
0.007437
0.035106
0.049803
0.040057
0.026679
0.017196
0.074352
0.006984
0.014962
0.030340
0.039246
0.044510
0.032369
0.060863
0.025430
0.073102
0.007210
0.015684
0.006408
0.008404
0.011825
0.034695
0.005641
0.009561
0.028904
0.015110
0.048258
0.024707
0.091905
0.012885
0.064929
0.022246
0.073036
0.054200
0.067665
0.044395
0.053159
0.043389
0.037135
0.068526
0.060007
0.008442
0.012333
0.007454
0.005923
0.014216
0.023734
0.071635
0.013544
0.061759
0.046691
0.036941
0.026458
0.032435
0.072240
0.062446
0.035925
0.026238
0.010302
0.039856
0.006901
0.007503
0.080725
0.067663
0.005812
0.013835
0.084140
0.039887
0.061116
0.070773
0.078009
0.060873
0.020538
0.121043
0.029937
0.111233
0.036058
0.026504
0.036931
0.021352
0.012246
0.056029
0.046282
0.015347
0.024782
0.041982
0.014771
0.081173
0.024331
0.010913
0.098959
0.031629
0.088451
0.058812
0.049030
0.011975
0.005515
0.037131
0.019079
0.032711
0.070352
0.042473
0.055471
0.033392
0.033009
0.125504
0.125968
0.077658
0.101224
0.052805
0.047964
0.043125
0.038286
0.106067
0.110910
0.115753
0.119950
0.096382
0.081926
0.086697
0.091539
0.072170
0.067328
0.057646
0.062487
0.124237
0.124937
0.017637
0.018547
0.056107
0.019919
0.109236
0.101787
0.116686
0.094338
0.005335
0.003209
0.012534
0.009241
0.034773
0.049545
0.027339
0.042200
0.071994
0.079441
0.086890
0.064546
0.006408
0.007331
0.016557
0.056481
0.046709
0.022494
0.047080
0.032139
0.037098
0.013394
0.086755
0.022497
0.076865
0.004369
0.009916
0.033229
0.023524
0.009088
0.018134
0.033682
0.070248
0.043053
0.059649
0.049924
0.059890
0.024168
0.014525
0.030613
0.020959
0.027311
0.036915
0.065133
0.048529
0.005302
0.030282
0.008685
0.087639
0.040234
0.078256
0.068489
0.076648
0.005502
0.014613
0.051015
0.041157
0.018175
0.008885
0.045603
0.035877
0.016266
0.104284
0.026718
0.094446
0.043832
0.058909
0.053575
0.061428
0.004585
0.012880
0.072737
0.062430
0.019318
0.028744
0.065437
0.055616
0.014394
0.005857
0.021062
0.030810
0.034135
0.024215
0.041384
0.031646
0.027204
0.004919
0.012490
0.098212
0.036304
0.093252
0.088413
0.082343
0.013212
0.012662
0.004540
0.022007
0.019646
0.029096
0.047883
0.077841
0.052866
0.070059
0.060263
0.074220
0.036771
0.046469
0.046503
0.049837
0.034732
0.015615
0.024982
0.059692
0.019083
0.009798
0.005102
0.062265
0.052466
0.008349
0.011379
0.041937
0.020547
0.086313
0.036002
0.026213
0.035904
0.013474
0.005173
0.026101
0.028330
0.018692
0.006217
0.006669
0.039687
0.068369
0.049412
0.061462
0.028265
0.054659
0.037931
0.047182
0.004531
0.009759
0.075137
0.067124
0.020038
0.029733
0.078849
0.069064
0.055841
0.046245
0.049413
0.039646
0.060210
0.063468
0.053710
0.071002
0.044408
0.033650
0.018691
0.114467
0.028492
0.104670
0.005055
0.035543
0.008271
0.045157
0.088643
0.078829
0.097848
0.087849
0.005487
0.012985
0.083451
0.073229
0.030864
0.076882
0.040544
0.055655
0.029263
0.038587
0.068146
0.058546
0.008470
0.022580
0.017537
0.008322
0.040088
0.013386
0.004198
0.011763
0.021253
0.004713
0.014073
0.026556
0.007324
0.107030
0.016719
0.103107
0.036550
0.097231
0.094287
0.025429
0.015696
0.050764
0.039522
0.029803
0.042083
0.032324
0.018300
0.027615
0.068280
0.010051
0.019505
0.064790
0.054947
0.015696
0.025326
0.016225
0.007304
0.060557
0.051068
0.080000
0.082584
0.070218
0.011728
0.094264
0.027805
0.084179
0.041605
0.051349
0.027342
0.017678
0.010911
0.020271
0.077846
0.067931
0.049254
0.039515
0.050731
0.051694
0.060489
0.064799
0.039661
0.013225
0.005004
0.024593
0.034345
0.059460
0.049732
0.021503
0.008733
0.017684
0.078742
0.048463
0.067158
0.058210
0.069017
0.031065
0.087124
0.077147
0.035015
0.061854
0.044720
0.054704
0.039707
0.032685
0.042405
0.013062
0.005014
0.029669
0.007769
0.042729
0.016575
0.093177
0.042290
0.015537
0.091033
0.081237
0.014577
0.024014
0.042096
0.037441
0.027569
0.019417
0.049567
0.028906
0.086219
0.019192
0.031472
0.028759
0.019412
0.020292
0.097199
0.087355
0.003937
0.003983
0.010797
0.063204
0.053356
0.033052
0.004111
0.105146
0.009321
0.042775
0.097907
0.095318
0.088096
0.067232
0.006171
0.006963
0.052503
0.039460
0.021464
0.029420
0.006180
0.006679
0.033599
0.035443
0.023919
0.025730
0.043432
0.027058
0.010610
0.004245
0.019866
0.019629
0.029447
0.029241
0.009453
0.016900
0.007784
0.066049
0.057852
0.075834
0.081396
0.020893
0.011569
0.046109
0.056643
0.066387
0.009561
0.091719
0.081678
0.022161
0.031700
0.060247
0.026387
0.055267
0.036011
0.081559
0.036722
0.054134
0.046445
0.052931
0.043431
0.048536
0.053173
0.056672
0.034301
0.027463
0.055727
0.045934
0.020768
0.011387
0.037160
0.085355
0.075393
0.032652
0.013896
0.023251
0.075298
0.075760
0.047427
0.037713
0.062518
0.004460
0.067883
0.059293
0.045658
0.072903
0.063152
0.027998
0.024054
0.012306
0.113211
0.022089
0.110700
0.033986
0.103407
0.101029
0.048112
0.015860
0.006227
0.034868
0.014640
0.048899
0.039140
0.018542
0.026540
0.016929
0.074309
0.030193
0.039895
0.044563
0.005907
0.053288
0.025281
0.072995
0.007287
0.008197
0.005163
0.007787
0.020771
0.011333
0.008615
0.004794
0.014935
0.048076
0.024342
0.091816
0.012606
0.064735
0.004131
0.021827
0.072979
0.054044
0.067553
0.044309
0.053051
0.043331
0.036993
0.006926
0.068436
0.059945
0.007371
0.011661
0.004695
0.012760
0.023570
0.071540
0.012909
0.061675
0.043233
0.033483
0.026293
0.032321
0.072172
0.062410
0.035717
0.026024
0.019007
0.009645
0.005511
0.006855
0.080634
0.067757
0.005336
0.013197
0.084072
0.039770
0.061053
0.070609
0.077873
0.060781
0.020052
0.120971
0.029858
0.111172
0.036008
0.026328
0.021155
0.011587
0.056089
0.046303
0.045357
0.035372
0.014975
0.024497
0.041766
0.014598
0.081105
0.023979
0.010061
0.098881
0.031551
0.088422
0.058723
0.048961
0.011360
0.004203
0.036885
0.032580
0.070256
0.042262
0.055330
0.115668
0.116168
0.023617
0.023364
0.071404
0.047849
0.096259
0.101101
0.105943
0.110786
0.043012
0.038183
0.033412
0.029154
0.052688
0.067209
0.057528
0.062368
0.081733
0.076891
0.091416
0.086574
