# vtk DataFile Version 2.0
Unstructured Grid Example
ASCII
DATASET UNSTRUCTURED_GRID
POINTS 1221 float
-0.000174 0.000011 0.000970 
0.999826 0.000042 -0.005858 
0.999795 1.000042 -0.001420 
-0.000205 1.000011 0.005408 
0.000168 -0.000211 0.050970 
1.000168 -0.000180 0.044142 
1.000137 0.999820 0.048580 
0.000137 0.999789 0.055408 
0.000166 0.049789 0.051192 
0.000165 0.099789 0.051413 
0.000163 0.149789 0.051635 
0.000161 0.199789 0.051857 
0.000160 0.249789 0.052079 
0.000158 0.299789 0.052301 
0.000157 0.349789 0.052523 
0.000155 0.399789 0.052745 
0.000154 0.449789 0.052967 
0.000152 0.499789 0.053189 
0.000151 0.549789 0.053411 
0.000149 0.599789 0.053633 
0.000148 0.649789 0.053855 
0.000146 0.699789 0.054077 
0.000145 0.749789 0.054299 
0.000143 0.799789 0.054521 
0.000141 0.849789 0.054743 
0.000140 0.899789 0.054964 
0.000138 0.949789 0.055186 
-0.000175 0.050011 0.001192 
-0.000177 0.100011 0.001413 
-0.000178 0.150011 0.001635 
-0.000180 0.200011 0.001857 
-0.000181 0.250011 0.002079 
-0.000183 0.300011 0.002301 
-0.000185 0.350011 0.002523 
-0.000186 0.400011 0.002745 
-0.000188 0.450011 0.002967 
-0.000189 0.500011 0.003189 
-0.000191 0.550011 0.003411 
-0.000192 0.600011 0.003633 
-0.000194 0.650011 0.003855 
-0.000195 0.700011 0.004077 
-0.000197 0.750011 0.004299 
-0.000198 0.800011 0.004521 
-0.000200 0.850011 0.004743 
-0.000201 0.900011 0.004964 
-0.000203 0.950011 0.005186 
-0.000003 -0.000100 0.025970 
-0.000034 0.999900 0.030408 
0.050168 -0.000210 0.050628 
0.100168 -0.000208 0.050287 
0.150168 -0.000207 0.049945 
0.200168 -0.000205 0.049604 
0.250168 -0.000203 0.049263 
0.300168 -0.000202 0.048921 
0.350168 -0.000200 0.048580 
0.400168 -0.000199 0.048238 
0.450168 -0.000197 0.047897 
0.500168 -0.000196 0.047556 
0.550168 -0.000194 0.047214 
0.600168 -0.000193 0.046873 
0.650168 -0.000191 0.046531 
0.700168 -0.000190 0.046190 
0.750168 -0.000188 0.045849 
0.800168 -0.000187 0.045507 
0.850168 -0.000185 0.045166 
0.900168 -0.000183 0.044824 
0.950168 -0.000182 0.044483 
0.049826 0.000012 0.000628 
0.099826 0.000014 0.000287 
0.149826 0.000015 -0.000055 
0.199826 0.000017 -0.000396 
0.249826 0.000018 -0.000737 
0.299826 0.000020 -0.001079 
0.349826 0.000022 -0.001420 
0.399826 0.000023 -0.001762 
0.449826 0.000025 -0.002103 
0.499826 0.000026 -0.002444 
0.549826 0.000028 -0.002786 
0.599826 0.000029 -0.003127 
0.649826 0.000031 -0.003469 
0.699826 0.000032 -0.003810 
0.749826 0.000034 -0.004151 
0.799826 0.000035 -0.004493 
0.849826 0.000037 -0.004834 
0.899826 0.000039 -0.005176 
0.949826 0.000040 -0.005517 
0.999997 -0.000069 0.019142 
1.000166 0.049820 0.044363 
1.000165 0.099820 0.044585 
1.000163 0.149820 0.044807 
1.000161 0.199820 0.045029 
1.000160 0.249820 0.045251 
1.000158 0.299820 0.045473 
1.000157 0.349820 0.045695 
1.000155 0.399820 0.045917 
1.000154 0.449820 0.046139 
1.000152 0.499820 0.046361 
1.000151 0.549820 0.046583 
1.000149 0.599820 0.046805 
1.000148 0.649820 0.047027 
1.000146 0.699820 0.047249 
1.000145 0.749820 0.047471 
1.000143 0.799820 0.047692 
1.000141 0.849820 0.047914 
1.000140 0.899820 0.048136 
1.000138 0.949820 0.048358 
0.999825 0.050042 -0.005637 
0.999823 0.100042 -0.005415 
0.999822 0.150042 -0.005193 
0.999820 0.200042 -0.004971 
0.999819 0.250042 -0.004749 
0.999817 0.300042 -0.004527 
0.999815 0.350042 -0.004305 
0.999814 0.400042 -0.004083 
0.999812 0.450042 -0.003861 
0.999811 0.500042 -0.003639 
0.999809 0.550042 -0.003417 
0.999808 0.600042 -0.003195 
0.999806 0.650042 -0.002973 
0.999805 0.700042 -0.002751 
0.999803 0.750042 -0.002529 
0.999802 0.800042 -0.002308 
0.999800 0.850042 -0.002086 
0.999799 0.900042 -0.001864 
0.999797 0.950042 -0.001642 
0.999966 0.999931 0.023580 
0.950137 0.999818 0.048922 
0.900137 0.999817 0.049263 
0.850137 0.999815 0.049604 
0.800137 0.999813 0.049946 
0.750137 0.999812 0.050287 
0.700137 0.999810 0.050629 
0.650137 0.999809 0.050970 
0.600137 0.999807 0.051311 
0.550137 0.999806 0.051653 
0.500137 0.999804 0.051994 
0.450137 0.999803 0.052336 
0.400137 0.999801 0.052677 
0.350137 0.999800 0.053018 
0.300137 0.999798 0.053360 
0.250137 0.999797 0.053701 
0.200137 0.999795 0.054043 
0.150137 0.999793 0.054384 
0.100137 0.999792 0.054725 
0.050137 0.999790 0.055067 
0.949795 1.000040 -0.001078 
0.899795 1.000039 -0.000737 
0.849795 1.000037 -0.000396 
0.799795 1.000035 -0.000054 
0.749795 1.000034 0.000287 
0.699795 1.000032 0.000629 
0.649795 1.000031 0.000970 
0.599795 1.000029 0.001311 
0.549795 1.000028 0.001653 
0.499795 1.000026 0.001994 
0.449795 1.000025 0.002336 
0.399795 1.000023 0.002677 
0.349795 1.000022 0.003018 
0.299795 1.000020 0.003360 
0.249795 1.000018 0.003701 
0.199795 1.000017 0.004043 
0.149795 1.000015 0.004384 
0.099795 1.000014 0.004725 
0.049795 1.000012 0.005067 
0.024230 0.999928 0.024131 
0.019829 0.999854 0.040690 
0.975619 0.999957 0.017635 
0.980246 0.999884 0.034132 
0.481633 0.999915 0.027119 
0.774966 0.999924 0.025117 
0.674966 0.999921 0.025799 
0.525707 0.999916 0.026818 
0.724966 0.999922 0.025458 
0.624966 0.999919 0.026141 
0.074966 0.999902 0.029896 
0.224966 0.999907 0.028872 
0.575048 0.999918 0.026482 
0.174966 0.999905 0.029213 
0.124966 0.999904 0.029555 
0.874966 0.999927 0.024434 
0.824966 0.999925 0.024775 
0.374966 0.999911 0.027848 
0.918299 0.999928 0.024138 
0.274966 0.999908 0.028531 
0.324966 0.999910 0.028189 
0.424966 0.999913 0.027506 
0.500152 0.499804 0.049775 
0.292476 0.294748 0.050283 
0.707812 0.704886 0.049267 
0.709233 0.290565 0.047419 
0.291071 0.709043 0.052131 
0.501506 0.781218 0.051015 
0.784606 0.497818 0.047824 
0.499660 0.223051 0.048550 
0.224411 0.502541 0.051670 
0.168379 0.170461 0.050579 
0.831155 0.169496 0.046049 
0.830460 0.830807 0.048989 
0.169150 0.830112 0.053501 
0.563793 0.640427 0.049965 
0.436511 0.359181 0.049585 
0.642595 0.437417 0.048525 
0.353526 0.566836 0.051074 
0.639961 0.846599 0.050360 
0.360929 0.153551 0.049189 
0.151459 0.360351 0.051537 
0.846921 0.359998 0.046787 
0.846467 0.641104 0.048037 
0.641687 0.153416 0.047271 
0.358617 0.846193 0.052279 
0.153937 0.634654 0.052737 
0.678426 0.581288 0.048919 
0.560840 0.330628 0.048610 
0.439465 0.668981 0.050940 
0.321902 0.420147 0.050638 
0.533903 0.881813 0.051240 
0.465396 0.117679 0.048316 
0.882442 0.465465 0.047012 
0.120060 0.465406 0.052218 
0.744450 0.896389 0.049867 
0.108103 0.258043 0.051379 
0.258797 0.097603 0.049638 
0.896737 0.255506 0.045983 
0.889783 0.736851 0.048167 
0.737199 0.110174 0.046427 
0.263105 0.889435 0.053123 
0.110410 0.738308 0.053495 
0.601136 0.739832 0.050151 
0.399169 0.259776 0.049399 
0.745398 0.404442 0.047677 
0.251825 0.597610 0.051905 
0.598538 0.520724 0.049196 
0.398183 0.474796 0.050360 
0.611929 0.253763 0.047920 
0.388240 0.745656 0.051630 
0.097764 0.094585 0.050724 
0.902566 0.094610 0.045229 
0.905347 0.902218 0.048794 
0.098705 0.905219 0.054316 
0.436982 0.902885 0.051995 
0.903233 0.562974 0.047303 
0.563322 0.096724 0.047555 
0.097068 0.562949 0.052808 
0.258833 0.202107 0.050101 
0.741983 0.797078 0.049443 
0.797367 0.257980 0.046672 
0.209183 0.745251 0.052851 
0.196356 0.278763 0.050868 
0.798338 0.715912 0.048698 
0.714803 0.206426 0.047007 
0.285501 0.793182 0.052543 
0.502230 0.411730 0.049370 
0.497397 0.588145 0.050186 
0.240996 0.365191 0.050947 
0.759303 0.634210 0.048602 
0.689710 0.500532 0.048484 
0.646120 0.345118 0.048092 
0.308924 0.504703 0.051102 
0.354180 0.654449 0.051458 
0.080408 0.183135 0.051236 
0.177213 0.084083 0.050135 
0.817731 0.918971 0.049467 
0.919319 0.182226 0.045503 
0.917351 0.820805 0.048351 
0.821153 0.082605 0.045731 
0.080985 0.817383 0.054047 
0.185457 0.914008 0.053762 
0.652042 0.655263 0.049428 
0.348248 0.344367 0.050122 
0.514177 0.696345 0.050551 
0.486128 0.303264 0.048998 
0.610342 0.916983 0.050874 
0.389671 0.082844 0.048679 
0.078546 0.394414 0.052186 
0.917276 0.389740 0.046438 
0.925110 0.660314 0.047586 
0.660663 0.074846 0.046793 
0.339882 0.924809 0.052756 
0.074597 0.661233 0.053397 
0.431343 0.821587 0.051673 
0.821141 0.565694 0.047876 
0.568746 0.177718 0.047877 
0.179717 0.566710 0.052260 
0.190573 0.431306 0.051585 
0.573843 0.818124 0.050685 
0.426845 0.178787 0.048851 
0.821798 0.426733 0.047254 
0.565624 0.457365 0.049139 
0.435477 0.541905 0.050403 
0.774437 0.331044 0.047153 
0.225620 0.668046 0.052396 
0.667703 0.780990 0.049879 
0.333465 0.218190 0.049663 
0.677478 0.930148 0.050474 
0.068707 0.317684 0.051913 
0.322885 0.069465 0.049075 
0.930496 0.322479 0.046049 
0.745853 0.559403 0.048362 
0.447982 0.736201 0.051180 
0.552128 0.263134 0.048370 
0.614273 0.594656 0.049417 
0.386139 0.405729 0.050136 
0.258749 0.443060 0.051171 
0.585596 0.392705 0.048716 
0.414709 0.606903 0.050834 
0.450780 0.427858 0.049793 
0.548770 0.572000 0.049763 
0.484919 0.934493 0.051808 
0.934841 0.515037 0.046874 
0.515385 0.065115 0.047742 
0.065462 0.515011 0.052811 
0.500325 0.838314 0.051276 
0.838099 0.507103 0.047500 
0.500503 0.152044 0.048229 
0.153702 0.501008 0.052146 
0.696818 0.842680 0.049954 
0.304074 0.156607 0.049591 
0.842509 0.302639 0.046562 
0.149491 0.701942 0.053066 
0.159756 0.231003 0.050906 
0.842102 0.773007 0.048653 
0.773355 0.157854 0.046392 
0.226950 0.841754 0.053158 
0.670134 0.237989 0.047452 
0.330155 0.761599 0.052098 
0.697057 0.355533 0.047790 
0.303247 0.644075 0.051760 
0.939766 0.606336 0.047246 
0.606684 0.060190 0.047096 
0.393928 0.939478 0.052452 
0.060466 0.606414 0.053250 
0.700410 0.433113 0.048111 
0.304038 0.558419 0.051374 
0.054587 0.053899 0.050838 
0.945745 0.053927 0.044753 
0.946030 0.945397 0.048708 
0.054666 0.945706 0.054796 
0.772882 0.945800 0.049892 
0.055810 0.232094 0.051621 
0.227042 0.054051 0.049661 
0.945313 0.771451 0.047941 
0.771799 0.054644 0.045944 
0.229106 0.944679 0.053600 
0.946689 0.226906 0.045515 
0.055106 0.771427 0.054019 
0.220150 0.159958 0.050178 
0.775442 0.847302 0.049438 
0.847645 0.224516 0.046180 
0.155786 0.774511 0.053346 
0.553331 0.947608 0.051399 
[...]
POINT_DATA 1221
SCALARS u float 1
LOOKUP_TABLE default
0.021499
0.127911
0.031318
0.118111
0.021963
0.127964
0.031376
0.118154
0.026657
0.031395
0.036162
0.040947
0.045744
0.050550
0.055362
0.060179
0.065001
0.069825
0.074652
0.079481
0.084311
0.089143
0.093976
0.098810
0.103645
0.108481
0.113318
0.026285
0.031088
0.035903
0.040724
0.045550
0.050379
0.055211
0.060045
0.064880
0.069716
0.074554
0.079392
0.084230
0.089069
0.093909
0.098749
0.103589
0.108430
0.113270
0.021273
0.118049
0.014909
0.008555
0.005927
0.010396
0.017090
0.024230
0.031514
0.038861
0.046241
0.053641
0.061053
0.068474
0.075900
0.083331
0.090765
0.098201
0.105640
0.113080
0.120522
0.014227
0.007324
0.003989
0.009444
0.016538
0.023850
0.031228
0.038634
0.046054
0.053483
0.060917
0.068355
0.075795
0.083237
0.090681
0.098125
0.105571
0.113017
0.120463
0.127860
0.123124
0.118285
0.113445
0.108606
0.103768
0.098930
0.094093
0.089256
0.084420
0.079585
0.074751
0.069918
0.065087
0.060258
0.055431
0.050608
0.045789
0.040975
0.036170
0.123071
0.118231
0.113392
0.108553
0.103714
0.098876
0.094039
0.089202
0.084366
0.079530
0.074696
0.069863
0.065032
0.060203
0.055376
0.050552
0.045732
0.040918
0.036112
0.031030
0.024053
0.016841
0.009987
0.005185
0.008065
0.014637
0.021782
0.029081
0.036441
0.043832
0.051240
0.058659
0.066085
0.073516
0.080951
0.088388
0.095828
0.103269
0.110711
0.023970
0.016713
0.009753
0.004683
0.007731
0.014444
0.021645
0.028973
0.036351
0.043753
0.051170
0.058595
0.066026
0.073460
0.080898
0.088338
0.095780
0.103223
0.110667
0.114428
0.115124
0.027429
0.028162
0.046296
0.003128
0.017545
0.039735
0.010164
0.024968
0.106875
0.084527
0.032391
0.091976
0.099425
0.012483
0.005224
0.062182
0.018895
0.077078
0.069630
0.054735
0.007309
0.008339
0.016821
0.056593
0.046828
0.022769
0.047783
0.032125
0.036864
0.013863
0.086398
0.022653
0.076601
0.005376
0.010592
0.032625
0.024059
0.009410
0.018578
0.034014
0.070327
0.043142
0.059807
0.050017
0.059997
0.024170
0.030828
0.021210
0.014995
0.027563
0.037169
0.065414
0.048722
0.005885
0.030630
0.009750
0.087833
0.040337
0.078166
0.068364
0.076467
0.006204
0.014246
0.050973
0.041929
0.018345
0.009580
0.045727
0.035981
0.016828
0.104264
0.026790
0.094337
0.043864
0.059085
0.053656
0.061525
0.006080
0.013204
0.072822
0.062461
0.019776
0.028879
0.065540
0.055754
0.014792
0.006735
0.021414
0.030954
0.033512
0.041995
0.024682
0.032279
0.027572
0.006465
0.012692
0.098280
0.036342
0.093314
0.088483
0.082281
0.013553
0.006164
0.013160
0.022541
0.019769
0.029384
0.048042
0.077907
0.052938
0.070209
0.060373
0.074348
0.036895
0.046654
0.046658
0.049630
0.035036
0.015833
0.025697
0.060151
0.019539
0.010343
0.062360
0.052581
0.005840
0.009252
0.011555
0.042129
0.020966
0.086376
0.036137
0.026308
0.036002
0.013794
0.006258
0.026163
0.028536
0.018982
0.007097
0.007440
0.039810
0.068408
0.049603
0.061595
0.028346
0.054814
0.039047
0.047164
0.005264
0.010577
0.075214
0.067148
0.020581
0.029847
0.078931
0.069134
0.055867
0.046095
0.048526
0.038790
0.060321
0.063611
0.053766
0.071155
0.041557
0.030488
0.019200
0.114627
0.028632
0.104806
0.005602
0.035836
0.009360
0.045220
0.088679
0.078753
0.098029
0.087891
0.006904
0.013301
0.083530
0.073218
0.030979
0.076944
0.040750
0.055792
0.029633
0.038678
0.068234
0.058439
0.013681
0.023492
0.017806
0.008998
0.040380
0.005619
0.009663
0.012371
0.021467
0.009030
0.006104
0.026902
0.008513
0.107180
0.016903
0.103289
0.036633
0.097367
0.094426
0.027377
0.016076
0.041633
0.050844
0.039658
0.029949
0.047164
0.018501
0.027890
0.068493
0.010811
0.019712
0.064889
0.055045
0.016175
0.025480
0.007812
0.016662
0.060808
0.051137
0.080076
0.082637
0.070253
0.012406
0.094372
0.027904
0.084257
0.041717
0.051487
0.023900
0.017858
0.011708
0.020458
0.077986
0.068048
0.049316
0.039565
0.050813
0.051789
0.060617
0.064910
0.039780
0.013760
0.006100
0.040876
0.031143
0.025011
0.034430
0.059569
0.049786
0.021930
0.008972
0.018155
0.078813
0.048536
0.067234
0.058346
0.069126
0.031161
0.087262
0.077255
0.035131
0.061967
0.044998
0.054820
0.039922
0.032816
0.042485
0.013548
0.006026
0.030030
0.008117
0.042945
0.017124
0.093471
0.015714
0.091259
0.081394
0.014954
0.024265
0.033185
0.042270
0.019522
0.049780
0.029205
0.086279
0.019542
0.031329
0.028876
0.019812
0.020429
0.097240
0.087383
0.005773
0.011188
0.005622
0.063302
0.053457
0.033290
0.006003
0.105233
0.009600
0.042836
0.097988
0.095387
0.088130
0.008190
0.017045
0.067325
0.039817
0.021603
0.007058
0.007548
0.033822
0.024185
0.043652
0.027323
0.011185
0.005347
0.020112
0.019891
0.029474
0.029827
0.009939
0.005701
0.017238
0.008556
0.066086
0.057914
0.075946
0.081486
0.011823
0.021825
0.046193
0.056703
0.066506
0.009884
0.091840
0.081712
0.022318
0.031022
0.054307
0.026502
0.055416
0.036247
0.081619
0.036824
0.054257
0.046714
0.053001
0.043525
0.048653
0.053321
0.056738
0.034544
0.027819
0.054550
0.044984
0.022708
0.024238
0.021076
0.011865
0.037242
0.085413
0.075402
0.032658
0.014109
0.023604
0.075388
0.034588
0.025054
0.054614
0.075817
0.047606
0.037811
0.062640
0.067989
0.059385
0.045740
0.072981
0.063172
0.018684
0.024446
0.013063
0.113283
0.022203
0.110780
0.034063
0.103459
0.101079
0.048286
0.005251
0.007437
0.035106
0.049803
0.040057
0.026679
0.017196
0.074352
0.006984
0.014962
0.030340
0.039246
0.044510
0.032369
0.060863
0.025430
0.073102
0.007210
0.015684
0.006408
0.008404
0.011825
0.034695
0.005641
0.009561
0.028904
0.015110
0.048258
0.024707
0.091905
0.012885
0.064929
0.022246
0.073036
0.054200
0.067665
0.044395
0.053159
0.043389
0.037135
0.068526
0.060007
0.008442
0.012333
0.007454
0.005923
0.014216
0.023734
0.071635
0.013544
0.061759
0.046691
0.036941
0.026458
0.032435
0.072240
0.062446
0.035925
0.026238
0.010302
0.039856
0.006901
0.007503
0.080725
0.067663
0.005812
0.013835
0.084140
0.039887
0.061116
0.070773
0.078009
0.060873
0.020538
0.121043
0.029937
0.111233
0.036058
0.026504
0.036931
0.021352
0.012246
0.056029
0.046282
0.015347
0.024782
0.041982
0.014771
0.081173
0.024331
0.010913
0.098959
0.031629
0.088451
0.058812
0.049030
0.011975
0.005515
0.037131
0.019079
0.032711
0.070352
0.042473
0.055471
0.033392
0.033009
0.125504
0.125968
0.077658
0.101224
0.052805
0.047964
0.043125
0.038286
0.106067
0.110910
0.115753
0.119950
0.096382
0.081926
0.086697
0.091539
0.072170
0.067328
0.057646
0.062487
0.124237
0.124937
0.017637
0.018547
0.056107
0.019919
0.109236
0.101787
0.116686
0.094338
0.005335
0.003209
0.012534
0.009241
0.034773
0.049545
0.027339
0.042200
0.071994
0.079441
0.086890
0.064546
0.006408
0.007331
0.016557
0.056481
0.046709
0.022494
0.047080
0.032139
0.037098
0.013394
0.086755
0.022497
0.076865
0.004369
0.009916
0.033229
0.023524
0.009088
0.018134
0.033682
0.070248
0.043053
0.059649
0.049924
0.059890
0.024168
0.014525
0.030613
0.020959
0.027311
0.036915
0.065133
0.048529
0.005302
0.030282
0.008685
0.087639
0.040234
0.078256
0.068489
0.076648
0.005502
0.014613
0.051015
0.041157
0.018175
0.008885
0.045603
0.035877
0.016266
0.104284
0.026718
0.094446
0.043832
0.058909
0.053575
0.061428
0.004585
0.012880
0.072737
0.062430
0.019318
0.028744
0.065437
0.055616
0.014394
0.005857
0.021062
0.030810
0.034135
0.024215
0.041384
0.031646
0.027204
0.004919
0.012490
0.098212
0.036304
0.093252
0.088413
0.082343
0.013212
0.012662
0.004540
0.022007
0.019646
0.029096
0.047883
0.077841
0.052866
0.070059
0.060263
0.074220
0.036771
0.046469
0.046503
0.049837
0.034732
0.015615
0.024982
0.059692
0.019083
0.009798
0.005102
0.062265
0.052466
0.008349
0.011379
0.041937
0.020547
0.086313
0.036002
0.026213
0.035904
0.013474
0.005173
0.026101
0.028330
0.018692
0.006217
0.006669
0.039687
0.068369
0.049412
0.061462
0.028265
0.054659
0.037931
0.047182
0.004531
0.009759
0.075137
0.067124
0.020038
0.029733
0.078849
0.069064
0.055841
0.046245
0.049413
0.039646
0.060210
0.063468
0.053710
0.071002
0.044408
0.033650
0.018691
0.114467
0.028492
0.104670
0.005055
0.035543
0.008271
0.045157
0.088643
0.078829
0.097848
0.087849
0.005487
0.012985
0.083451
0.073229
0.030864
0.076882
0.040544
0.055655
0.029263
0.038587
0.068146
0.058546
0.008470
0.022580
0.017537
0.008322
0.040088
0.013386
0.004198
0.011763
0.021253
0.004713
0.014073
0.026556
0.007324
0.107030
0.016719
0.103107
0.036550
0.097231
0.094287
0.025429
0.015696
0.050764
0.039522
0.029803
0.042083
0.032324
0.018300
0.027615
0.068280
0.010051
0.019505
0.064790
0.054947
0.015696
0.025326
0.016225
0.007304
0.060557
0.051068
0.080000
0.082584
0.070218
0.011728
0.094264
0.027805
0.084179
0.041605
0.051349
0.027342
0.017678
0.010911
0.020271
0.077846
0.067931
0.049254
0.039515
0.050731
0.051694
0.060489
0.064799
0.039661
0.013225
0.005004
0.024593
0.034345
0.059460
0.049732
0.021503
0.008733
0.017684
0.078742
0.048463
0.067158
0.058210
0.069017
0.031065
0.087124
0.077147
0.035015
0.061854
0.044720
0.054704
0.039707
0.032685
0.042405
0.013062
0.005014
0.029669
0.007769
0.042729
0.016575
0.093177
0.042290
0.015537
0.091033
0.081237
0.014577
0.024014
0.042096
0.037441
0.027569
0.019417
0.049567
0.028906
0.086219
0.019192
0.031472
0.028759
0.019412
0.020292
0.097199
0.087355
0.003937
0.003983
0.010797
0.063204
0.053356
0.033052
0.004111
0.105146
0.009321
0.042775
0.097907
0.095318
0.088096
0.067232
0.006171
0.006963
0.052503
0.039460
0.021464
0.029420
0.006180
0.006679
0.033599
0.035443
0.023919
0.025730
0.043432
0.027058
0.010610
0.004245
0.019866
0.019629
0.029447
0.029241
0.009453
0.016900
0.007784
0.066049
0.057852
0.075834
0.081396
0.020893
0.011569
0.046109
0.056643
0.066387
0.009561
0.091719
0.081678
0.022161
0.031700
0.060247
0.026387
0.055267
0.036011
0.081559
0.036722
0.054134
0.046445
0.052931
0.043431
0.048536
0.053173
0.056672
0.034301
0.027463
0.055727
0.045934
0.020768
0.011387
0.037160
0.085355
0.075393
0.032652
0.013896
0.023251
0.075298
0.075760
0.047427
0.037713
0.062518
0.004460
0.067883
0.059293
0.045658
0.072903
0.063152
0.027998
0.024054
0.012306
0.113211
0.022089
0.110700
0.033986
0.103407
0.101029
0.048112
0.015860
0.006227
0.034868
0.014640
0.048899
0.039140
0.018542
0.026540
0.016929
0.074309
0.030193
0.039895
0.044563
0.005907
0.053288
0.025281
0.072995
0.007287
0.008197
0.005163
0.007787
0.020771
0.011333
0.008615
0.004794
0.014935
0.048076
0.024342
0.091816
0.012606
0.064735
0.004131
0.021827
0.072979
0.054044
0.067553
0.044309
0.053051
0.043331
0.036993
0.006926
0.068436
0.059945
0.007371
0.011661
0.004695
0.012760
0.023570
0.071540
0.012909
0.061675
0.043233
0.033483
0.026293
0.032321
0.072172
0.062410
0.035717
0.026024
0.019007
0.009645
0.005511
0.006855
0.080634
0.067757
0.005336
0.013197
0.084072
0.039770
0.061053
0.070609
0.077873
0.060781
0.020052
0.120971
0.029858
0.111172
0.036008
0.026328
0.021155
0.011587
0.056089
0.046303
0.045357
0.035372
0.014975
0.024497
0.041766
0.014598
0.081105
0.023979
0.010061
0.098881
0.031551
0.088422
0.058723
0.048961
0.011360
0.004203
0.036885
0.032580
0.070256
0.042262
0.055330
0.115668
0.116168
0.023617
0.023364
0.071404
0.047849
0.096259
0.101101
0.105943
0.110786
0.043012
0.038183
0.033412
0.029154
0.052688
0.067209
0.057528
0.062368
0.081733
0.076891
0.091416
0.086574
