# vtk DataFile Version 2.0
Unstructured Grid Example
ASCII
DATASET UNSTRUCTURED_GRID
POINTS 1221 float
-0.000022 -0.000040 0.000218 
0.999987 0.000049 -0.000370 
1.000008 1.000090 0.000057 
-0.000113 0.999880 0.000002 
0.000003 0.000037 0.050217 
1.000037 -0.000089 0.049631 
0.999942 1.000131 0.050056 
-0.000076 0.999896 0.050002 
-0.001155 0.050032 0.050131 
-0.002260 0.100004 0.050019 
-0.003183 0.149939 0.049903 
-0.003795 0.199900 0.049847 
-0.004063 0.249844 0.049818 
-0.003900 0.299852 0.049764 
-0.003365 0.349830 0.049784 
-0.002447 0.399825 0.049869 
-0.001278 0.449861 0.049955 
0.000025 0.499879 0.050028 
0.001301 0.549861 0.050063 
0.002443 0.599851 0.050079 
0.003354 0.649770 0.050129 
0.003898 0.699771 0.050158 
0.004067 0.749845 0.050113 
0.003766 0.799900 0.050050 
0.003211 0.849802 0.050057 
0.002274 0.899842 0.050056 
0.001133 0.949890 0.050021 
-0.001184 0.049955 0.000122 
-0.002249 0.099912 0.000007 
-0.003145 0.149851 -0.000097 
-0.003761 0.199906 -0.000165 
-0.004030 0.249817 -0.000183 
-0.003845 0.299762 -0.000202 
-0.003306 0.349870 -0.000200 
-0.002397 0.399882 -0.000125 
-0.001250 0.449903 -0.000042 
0.000039 0.499911 0.000026 
0.001318 0.549845 0.000055 
0.002460 0.599868 0.000063 
0.003349 0.649831 0.000083 
0.003841 0.699757 0.000146 
0.004001 0.749811 0.000127 
0.003805 0.799849 0.000053 
0.003134 0.849851 0.000035 
0.002204 0.899863 0.000049 
0.001098 0.949874 0.000026 
-0.000011 -0.000001 0.025215 
-0.000093 0.999888 0.025002 
0.050010 0.001196 0.050177 
0.100048 0.002267 0.050114 
0.150095 0.003157 0.050097 
0.200072 0.003776 0.050051 
0.250139 0.004074 0.050014 
0.300229 0.003932 0.049993 
0.350103 0.003380 0.049971 
0.400077 0.002490 0.049982 
0.450043 0.001328 0.050015 
0.500019 0.000023 0.050056 
0.550042 -0.001247 0.050098 
0.600046 -0.002405 0.050127 
0.650142 -0.003313 0.050084 
0.700209 -0.003970 0.049987 
0.750106 -0.004078 0.049957 
0.800105 -0.003810 0.049925 
0.850127 -0.003195 0.049845 
0.900074 -0.002301 0.049776 
0.950042 -0.001248 0.049693 
0.049983 0.001118 0.000181 
0.100022 0.002231 0.000125 
0.150132 0.003137 0.000093 
0.200082 0.003764 0.000061 
0.250138 0.004072 0.000019 
0.300217 0.003924 -0.000019 
0.350110 0.003379 -0.000041 
0.400097 0.002480 -0.000026 
0.450075 0.001302 0.000005 
0.500057 -0.000006 0.000054 
0.550092 -0.001299 0.000105 
0.600063 -0.002444 0.000128 
0.650053 -0.003378 0.000126 
0.700157 -0.003895 -0.000002 
0.750162 -0.004104 -0.000009 
0.800086 -0.003768 -0.000084 
0.850074 -0.003135 -0.000159 
0.900027 -0.002214 -0.000239 
0.949988 -0.001125 -0.000309 
1.000011 -0.000021 0.024633 
0.998869 0.049928 0.049780 
0.997747 0.099979 0.049957 
0.996845 0.150117 0.050077 
0.996239 0.200040 0.050155 
0.995956 0.250133 0.050187 
0.996080 0.300335 0.050138 
0.996658 0.350221 0.050048 
0.997549 0.400188 0.049906 
0.998714 0.450155 0.049833 
0.999997 0.500116 0.049814 
1.001263 0.550115 0.049848 
1.002402 0.600097 0.049927 
1.003308 0.650202 0.050006 
1.003872 0.700248 0.050032 
1.004035 0.750188 0.050079 
1.003816 0.800146 0.050100 
1.003146 0.850182 0.050130 
1.002221 0.900145 0.050129 
1.001131 0.950134 0.050096 
0.998821 0.050053 -0.000208 
0.997733 0.100103 -0.000031 
0.996819 0.150129 0.000073 
0.996248 0.200081 0.000161 
0.995967 0.250131 0.000194 
0.996113 0.300207 0.000142 
0.996629 0.350084 0.000010 
0.997536 0.400102 -0.000097 
0.998693 0.450112 -0.000172 
0.999980 0.500126 -0.000186 
1.001249 0.550169 -0.000150 
1.002429 0.600181 -0.000047 
1.003348 0.650193 0.000042 
1.003845 0.700242 0.000048 
1.004042 0.750174 0.000063 
1.003766 0.800137 0.000095 
1.003193 0.850166 0.000130 
1.002280 0.900123 0.000117 
1.001195 0.950089 0.000092 
0.999976 1.000109 0.025056 
0.949934 0.998950 0.049987 
0.899900 0.997815 0.049931 
0.849815 0.996884 0.049892 
0.799868 0.996198 0.049885 
0.749888 0.995922 0.049835 
0.699847 0.996040 0.049863 
0.649945 0.996602 0.049922 
0.599987 0.997486 0.049989 
0.550027 0.998666 0.050067 
0.500043 0.999981 0.050141 
0.450001 1.001267 0.050194 
0.399984 1.002418 0.050228 
0.349877 1.003343 0.050194 
0.299802 1.003918 0.050103 
0.249874 1.004078 0.050027 
0.199934 1.003767 0.050011 
0.149826 1.003180 0.049989 
0.099875 1.002218 0.049959 
0.049920 1.001099 0.049970 
0.950002 0.998898 -0.000007 
0.899954 0.997781 -0.000061 
0.849850 0.996814 -0.000095 
0.799947 0.996221 -0.000147 
0.749892 0.995893 -0.000160 
0.699792 0.996038 -0.000147 
0.649902 0.996591 -0.000098 
0.599935 0.997499 -0.000020 
0.549968 0.998685 0.000058 
0.499996 1.000016 0.000138 
0.449962 1.001324 0.000204 
0.399965 1.002497 0.000238 
0.349907 1.003412 0.000217 
0.299891 1.003917 0.000126 
0.249911 1.004084 0.000017 
0.199860 1.003859 0.000043 
0.149841 1.003229 -0.000013 
0.099874 1.002191 -0.000051 
0.049891 1.001093 -0.000032 
0.024209 1.000474 0.018873 
0.019706 1.000368 0.035405 
0.975677 0.999529 0.018914 
0.980169 0.999652 0.035446 
0.481672 1.000481 0.025163 
0.774895 0.996016 0.024840 
0.674917 0.996250 0.024887 
0.525735 0.999299 0.025099 
0.724823 0.995846 0.024839 
0.624968 0.996982 0.024949 
0.074880 1.001674 0.024953 
0.224893 1.004010 0.025002 
0.575082 0.998058 0.025025 
0.174853 1.003506 0.025022 
0.124847 1.002733 0.024963 
0.874883 0.997262 0.024913 
0.824857 0.996502 0.024891 
0.374978 1.002972 0.025229 
0.918256 0.998197 0.024954 
0.274830 1.004109 0.025056 
0.324836 1.003767 0.025170 
0.424955 1.001920 0.025219 
0.499981 0.500002 0.050001 
0.293194 0.294016 0.050072 
0.706776 0.705980 0.050095 
0.709944 0.291594 0.049962 
0.290061 0.708423 0.049875 
0.497503 0.781386 0.049964 
0.784417 0.501806 0.049972 
0.503362 0.223266 0.049934 
0.224269 0.498898 0.050105 
0.166479 0.172341 0.049982 
0.829289 0.167961 0.050101 
0.832032 0.829297 0.050003 
0.170729 0.832033 0.049933 
0.560866 0.641521 0.050014 
0.439110 0.358449 0.050028 
0.643327 0.440345 0.049967 
0.352437 0.564289 0.049998 
0.637779 0.844846 0.049970 
0.362846 0.155653 0.049952 
0.149383 0.358481 0.050005 
0.844870 0.362286 0.049993 
0.848200 0.643375 0.050038 
0.643587 0.151714 0.050010 
0.356416 0.848305 0.050009 
0.155624 0.632714 0.050012 
0.677486 0.584467 0.050076 
0.563816 0.331455 0.049942 
0.436158 0.668531 0.049930 
0.322490 0.417319 0.050122 
0.531151 0.881289 0.050011 
0.467866 0.118605 0.049954 
0.881600 0.468323 0.049874 
0.119238 0.462888 0.050056 
0.744184 0.893277 0.049913 
0.104747 0.258063 0.049913 
0.258804 0.101146 0.049985 
0.893318 0.255841 0.050153 
0.892832 0.737330 0.050055 
0.737277 0.107155 0.050047 
0.262719 0.892861 0.049976 
0.113474 0.738271 0.049990 
0.597859 0.740024 0.050037 
0.402143 0.259949 0.049985 
0.745212 0.407814 0.049947 
0.251767 0.594696 0.049997 
0.597950 0.523110 0.050011 
0.398503 0.472732 0.050053 
0.614748 0.253888 0.049931 
0.385111 0.745936 0.049896 
0.095819 0.096640 0.050045 
0.900636 0.092910 0.049975 
0.907053 0.900700 0.050011 
0.100306 0.907260 0.049963 
0.434732 0.904434 0.050081 
0.904418 0.565340 0.049918 
0.565302 0.095583 0.050023 
0.098293 0.560973 0.050072 
0.258822 0.203618 0.049999 
0.741731 0.795959 0.050018 
0.795926 0.258294 0.050060 
0.210160 0.745429 0.049895 
0.194771 0.278319 0.050022 
0.799475 0.716838 0.050068 
0.715429 0.205454 0.050009 
0.284559 0.794571 0.049902 
0.504100 0.411980 0.050001 
0.495179 0.588267 0.049981 
0.240545 0.362848 0.050105 
0.759427 0.636937 0.050076 
0.689542 0.504293 0.050014 
0.647857 0.346950 0.049931 
0.308723 0.501312 0.050089 
0.352123 0.653029 0.049901 
0.077039 0.184053 0.049915 
0.176234 0.087412 0.050023 
0.818320 0.915977 0.049924 
0.915971 0.181663 0.050137 
0.920348 0.820266 0.050061 
0.820198 0.079610 0.049988 
0.084063 0.818275 0.049985 
0.186053 0.917392 0.049958 
0.650058 0.657123 0.050090 
0.349903 0.342870 0.050087 
0.510331 0.696626 0.049971 
0.489650 0.303356 0.049956 
0.608665 0.914764 0.049963 
0.391080 0.085428 0.049958 
0.076089 0.393030 0.049947 
0.914780 0.391574 0.049951 
0.928104 0.661568 0.050015 
0.661530 0.071863 0.050069 
0.338723 0.928185 0.050110 
0.077645 0.660394 0.050053 
0.428001 0.822608 0.049975 
0.821765 0.569143 0.049998 
0.571799 0.177113 0.049967 
0.180363 0.563680 0.050070 
0.189722 0.428192 0.050090 
0.570520 0.817429 0.049982 
0.429857 0.179864 0.049944 
0.820785 0.430086 0.049921 
0.566376 0.459007 0.049985 
0.434399 0.540663 0.049994 
0.773619 0.333069 0.049985 
0.226151 0.666420 0.049925 
0.665728 0.780338 0.050035 
0.335169 0.219219 0.049997 
0.676560 0.926891 0.049901 
0.065104 0.317104 0.049876 
0.323535 0.073084 0.049965 
0.926954 0.323536 0.050096 
0.745718 0.563178 0.050042 
0.444171 0.736355 0.049927 
0.555621 0.263378 0.049925 
0.612489 0.596878 0.050048 
0.387572 0.403867 0.050082 
0.258593 0.439645 0.050129 
0.587475 0.394374 0.049953 
0.412496 0.605621 0.049952 
0.452205 0.427020 0.050032 
0.546990 0.573211 0.049999 
0.483212 0.935036 0.050093 
0.935047 0.516892 0.049855 
0.516816 0.064976 0.050019 
0.065706 0.513553 0.050059 
0.496825 0.838469 0.049991 
0.838064 0.510684 0.049922 
0.503583 0.152266 0.049950 
0.153567 0.497932 0.050084 
0.695614 0.840636 0.049973 
0.305007 0.159043 0.049970 
0.840151 0.303929 0.050078 
0.151731 0.701195 0.049962 
0.157360 0.231606 0.049967 
0.844196 0.772718 0.050043 
0.772693 0.155797 0.050067 
0.227309 0.844213 0.049926 
0.671801 0.237804 0.049958 
0.328184 0.762196 0.049886 
0.697822 0.357913 0.049935 
0.302169 0.642106 0.049916 
0.942031 0.607788 0.049942 
0.607738 0.057967 0.050075 
0.392610 0.942099 0.050142 
0.062765 0.605349 0.050076 
0.700658 0.436642 0.049962 
0.303488 0.555262 0.050016 
0.053262 0.055307 0.050111 
0.944445 0.052857 0.049836 
0.947043 0.944516 0.050027 
0.055672 0.947045 0.049973 
0.772860 0.942178 0.049884 
0.051827 0.232359 0.049859 
0.226767 0.058044 0.050014 
0.948959 0.771595 0.050072 
0.771548 0.050987 0.049991 
0.229055 0.948710 0.049978 
0.942749 0.226969 0.050174 
0.058778 0.771713 0.050047 
0.219348 0.162320 0.049990 
0.775838 0.845130 0.049968 
0.845149 0.224186 0.050120 
0.157937 0.775239 0.049937 
0.551981 0.946456 0.050035 
[...]
POINT_DATA 1221
SCALARS u float 1
LOOKUP_TABLE default
0.004116
0.006908
0.001971
0.003046
0.004073
0.007061
0.002844
0.002391
0.021504
0.041796
0.058909
0.070270
0.075288
0.072322
0.062447
0.045434
0.023800
0.002346
0.024227
0.045302
0.062229
0.072281
0.075309
0.069693
0.059521
0.042172
0.021064
0.022033
0.041636
0.058272
0.069657
0.074688
0.071345
0.061309
0.044452
0.023201
0.001865
0.024574
0.045573
0.062040
0.071241
0.074130
0.070434
0.058041
0.040853
0.020440
0.003977
0.002697
0.022361
0.041990
0.058451
0.069860
0.075400
0.072848
0.062543
0.046079
0.024584
0.001182
0.023154
0.044555
0.061351
0.073532
0.075460
0.070509
0.059220
0.042776
0.023792
0.020954
0.041330
0.058099
0.069652
0.075362
0.072686
0.062543
0.045912
0.024117
0.001455
0.024159
0.045291
0.062526
0.072096
0.075979
0.069729
0.058081
0.041191
0.021575
0.006801
0.021349
0.041675
0.058413
0.069625
0.074925
0.072811
0.061964
0.045501
0.024156
0.004051
0.023626
0.044477
0.061301
0.071774
0.074732
0.070664
0.058329
0.041229
0.021147
0.022166
0.041977
0.058903
0.069486
0.074728
0.072045
0.062376
0.045649
0.024471
0.004182
0.023472
0.045066
0.062032
0.071269
0.074835
0.069719
0.059180
0.042294
0.022234
0.002320
0.019461
0.040473
0.057771
0.070399
0.075522
0.073350
0.062867
0.046499
0.024717
0.002752
0.023714
0.044915
0.061972
0.072584
0.075476
0.069688
0.058906
0.041101
0.020381
0.020384
0.041059
0.059029
0.069958
0.076058
0.073444
0.063115
0.046278
0.024346
0.002576
0.024786
0.046405
0.063266
0.072524
0.075550
0.071433
0.059790
0.040603
0.020324
0.008946
0.006986
0.008721
0.006501
0.009388
0.073767
0.069409
0.013101
0.076967
0.055834
0.031046
0.074190
0.035925
0.064905
0.050631
0.050717
0.064783
0.055140
0.033386
0.076077
0.069821
0.035758
0.000359
0.023739
0.023539
0.022365
0.022199
0.071392
0.070311
0.071443
0.071195
0.044618
0.044821
0.044589
0.044950
0.054047
0.053793
0.053204
0.053690
0.052127
0.052132
0.052294
0.052354
0.051964
0.051769
0.051976
0.052240
0.057194
0.059145
0.059669
0.057739
0.050100
0.050570
0.051134
0.051924
0.061116
0.059242
0.061858
0.060419
0.059341
0.059505
0.059789
0.059530
0.057937
0.057976
0.058901
0.057690
0.041374
0.042769
0.055127
0.055266
0.047447
0.047733
0.046426
0.046769
0.046376
0.047348
0.046727
0.047760
0.024342
0.024266
0.023837
0.020835
0.028968
0.027405
0.025948
0.026520
0.037477
0.038278
0.047446
0.047246
0.066040
0.046360
0.066482
0.046370
0.060774
0.059709
0.060364
0.060584
0.059591
0.060622
0.060902
0.060354
0.045922
0.045952
0.068457
0.068107
0.052900
0.052856
0.051775
0.052998
0.061379
0.061760
0.061711
0.062219
0.061111
0.062036
0.061282
0.061644
0.062742
0.061090
0.060932
0.060693
0.031593
0.031668
0.036118
0.036120
0.037288
0.037739
0.065399
0.065410
0.064993
0.064672
0.066365
0.067829
0.067585
0.048199
0.048152
0.066981
0.046508
0.047002
0.034946
0.035531
0.029761
0.031736
0.030159
0.031705
0.062122
0.062867
0.059993
0.060745
0.045756
0.046026
0.045551
0.047517
0.041993
0.042303
0.042550
0.042729
0.034502
0.034649
0.043969
0.043711
0.050460
0.050067
0.049883
0.051053
0.062227
0.062558
0.030898
0.031396
0.029003
0.029746
0.070533
0.070756
0.070102
0.070130
0.071119
0.070789
0.070004
0.070595
0.041635
0.044766
0.044284
0.043552
0.033509
0.034513
0.033864
0.036819
0.048658
0.048282
0.048221
0.048630
0.070093
0.070172
0.055583
0.056182
0.056760
0.055877
0.055537
0.041281
0.040857
0.041561
0.041156
0.053828
0.052898
0.053191
0.052332
0.053619
0.052320
0.053239
0.051269
0.054434
0.058163
0.067282
0.054468
0.053798
0.054135
0.068972
0.054568
0.054820
0.055114
0.003991
0.004112
0.002867
0.004034
0.027423
0.027193
0.053355
0.053708
0.053421
0.070326
0.071097
0.071281
0.071099
0.051710
0.052347
0.051224
0.052082
0.054752
0.054878
0.056025
0.053493
0.029330
0.030006
0.029857
0.029766
0.039146
0.039142
0.053776
0.054171
0.053804
0.054189
0.054206
0.022891
0.022913
0.051948
0.051792
0.041691
0.041094
0.042038
0.042341
0.052296
0.056901
0.056849
0.056454
0.032966
0.033859
0.032950
0.034426
0.051642
0.052634
0.052253
0.046573
0.047970
0.046861
0.047859
0.057818
0.065428
0.065325
0.020729
0.021335
0.054271
0.071823
0.072268
0.071375
0.070434
0.052145
0.052257
0.052321
0.051246
0.050665
0.070606
0.060782
0.059577
0.059092
0.059301
0.058962
0.058026
0.065537
0.057214
0.052645
0.051963
0.052817
0.052454
0.056931
0.022189
0.022406
0.018518
0.017977
0.064529
0.064297
0.064545
0.064254
0.063809
0.064911
0.064819
0.063757
0.065020
0.064705
0.054433
0.071290
0.065674
0.020214
0.019625
0.052004
0.052299
0.068726
0.061211
0.045643
0.046229
0.071874
0.067349
0.066912
0.071524
0.050239
0.050266
0.050429
0.050711
0.066503
0.066029
0.066916
0.066787
0.063678
0.064022
0.055519
0.055664
0.055356
0.059099
0.058748
0.058691
0.059551
0.067331
0.066810
0.044439
0.044137
0.044304
0.044384
0.056643
0.055953
0.056853
0.057307
0.055700
0.056060
0.055864
0.056182
0.058957
0.058931
0.045760
0.045402
0.041242
0.060259
0.037495
0.038114
0.058517
0.059309
0.059029
0.069028
0.054707
0.054820
0.054833
0.049440
0.049639
0.063201
0.020424
0.019078
0.018415
0.020329
0.042716
0.044356
0.059988
0.060165
0.060356
0.067756
0.039132
0.039045
0.038947
0.037233
0.039804
0.037960
0.038216
0.037878
0.048719
0.042947
0.032481
0.045784
0.036567
0.036412
0.043372
0.044107
0.060907
0.037214
0.037240
0.066842
0.067411
0.066914
0.058829
0.059463
0.045357
0.046211
0.061614
0.061145
0.045530
0.046087
0.038266
0.061539
0.042881
0.043235
0.071061
0.068767
0.067782
0.068492
0.068009
0.055309
0.055358
0.055378
0.018757
0.017041
0.018857
0.016893
0.046378
0.046431
0.060702
0.030748
0.031515
0.050654
0.043732
0.031416
0.041494
0.043132
0.021102
0.020674
0.018882
0.021072
0.054272
0.055228
0.047105
0.039395
0.039120
0.039392
0.062513
0.062879
0.051970
0.068170
0.048742
0.047406
0.047021
0.039479
0.060525
0.060458
0.059834
0.066975
0.058576
0.058657
0.059443
0.058636
0.017411
0.018176
0.014775
0.015112
0.070359
0.070440
0.064122
0.050436
0.050843
0.031619
0.031348
0.061633
0.061139
0.054283
0.058555
0.058166
0.058392
0.051694
0.052476
0.051344
0.054239
0.020327
0.020484
0.031044
0.030718
0.066576
0.051691
0.036012
0.037637
0.036706
0.038484
0.010629
0.008362
0.011710
0.009963
0.009373
0.075668
0.073321
0.065998
0.051109
0.032270
0.073328
0.064460
0.051477
0.034652
0.068237
0.013512
0.035311
0.054898
0.034694
0.053897
0.075216
0.068541
0.012307
0.011349
0.010860
0.009479
0.008763
0.076415
0.051150
0.065804
0.032768
0.074276
0.064982
0.051402
0.073675
0.034605
0.055354
0.013035
0.069007
0.035660
0.054303
0.068101
0.075649
0.035120
0.000553
0.023584
0.023498
0.022585
0.022431
0.071141
0.070885
0.071543
0.071494
0.044779
0.044810
0.045485
0.045263
0.053789
0.053636
0.053508
0.053853
0.052627
0.052325
0.051416
0.051572
0.051626
0.052188
0.052091
0.052090
0.057697
0.057884
0.059368
0.059703
0.050240
0.050898
0.051557
0.051614
0.061814
0.058588
0.061899
0.059833
0.059508
0.059730
0.060549
0.059157
0.057716
0.058680
0.056014
0.056573
0.042903
0.042919
0.055182
0.055108
0.046924
0.046768
0.046828
0.046481
0.047111
0.047641
0.047399
0.048144
0.024251
0.025026
0.023337
0.020652
0.028685
0.027186
0.026760
0.027152
0.037252
0.038390
0.047391
0.047329
0.066904
0.066900
0.047135
0.047335
0.060276
0.059202
0.060802
0.060237
0.060063
0.059567
0.059973
0.060411
0.045606
0.068347
0.045752
0.067599
0.052712
0.052678
0.050870
0.052357
0.061102
0.061799
0.062216
0.061353
0.061449
0.062327
0.061579
0.061699
0.062510
0.061019
0.061177
0.061455
0.031476
0.032010
0.037503
0.035521
0.036168
0.037765
0.065582
0.064557
0.064952
0.064312
0.066494
0.067482
0.067614
0.048004
0.048259
0.067146
0.046384
0.046954
0.034771
0.035551
0.030106
0.031934
0.031008
0.031971
0.062127
0.063648
0.062532
0.060477
0.046490
0.046139
0.044543
0.047141
0.041044
0.042517
0.042535
0.043317
0.034730
0.034530
0.044737
0.044841
0.050269
0.050715
0.051394
0.051202
0.070287
0.070207
0.030411
0.030700
0.030278
0.029001
0.070836
0.069909
0.069971
0.070615
0.069759
0.071223
0.069704
0.069801
0.041658
0.044841
0.043860
0.043406
0.033409
0.034366
0.033880
0.036368
0.047910
0.048061
0.048702
0.049266
0.040930
0.069351
0.055473
0.056566
0.056032
0.069635
0.038313
0.041184
0.041028
0.055227
0.061461
0.052691
0.052514
0.052985
0.052846
0.052806
0.053508
0.053140
0.051413
0.058438
0.058361
0.054305
0.053857
0.053910
0.056092
0.056332
0.054552
0.054860
0.054878
0.003771
0.003588
0.003302
0.004320
0.027248
0.027264
0.053537
0.053609
0.053148
0.070223
0.070439
0.069802
0.071209
0.051281
0.051172
0.051748
0.051877
0.055128
0.055183
0.053763
0.053950
0.029329
0.030186
0.029500
0.030170
0.039309
0.039247
0.054464
0.053761
0.054229
0.054352
0.054219
0.022840
0.023084
0.041067
0.041015
0.042408
0.042337
0.051923
0.057532
0.056634
0.056017
0.033767
0.033995
0.033684
0.034583
0.052051
0.051581
0.052389
0.046818
0.048278
0.047543
0.048097
0.057034
0.065270
0.065605
0.020501
0.021646
0.053991
0.072184
0.071465
0.071354
0.070985
0.066422
0.052447
0.051625
0.051881
0.051308
0.050457
0.060471
0.062752
0.063017
0.059704
0.058224
0.059332
0.058685
0.058123
0.066010
0.057436
0.052255
0.052466
0.051883
0.052233
0.056651
0.022071
0.022410
0.018217
0.017916
0.064175
0.064100
0.064243
0.064562
0.064741
0.063867
0.063835
0.063844
0.054067
0.061472
0.052481
0.064475
0.071660
0.065892
0.071657
0.020244
0.019521
0.051869
0.049564
0.052294
0.050026
0.069000
0.061168
0.045556
0.046351
0.071606
0.067174
0.071619
0.066997
0.049979
0.050473
0.050697
0.067227
0.066200
0.066895
0.065975
0.063511
0.063474
0.055007
0.056063
0.055805
0.059502
0.058265
0.058314
0.059601
0.060354
0.060059
0.044215
0.043261
0.044313
0.044100
0.056985
0.056334
0.057358
0.057559
0.056183
0.056180
0.056214
0.056453
0.058183
0.058656
0.043718
0.044234
0.037370
0.038143
0.058954
0.058357
0.059301
0.068987
0.055052
0.054658
0.054142
0.020706
0.019353
0.018519
0.019929
0.043623
0.042242
0.044135
0.059765
0.060273
0.061009
0.067920
0.038458
0.038494
0.038645
0.038072
0.038506
0.039011
0.037685
0.037358
0.048306
0.060888
0.032510
0.045737
0.036883
0.038159
0.038186
0.067546
0.044138
0.044739
0.060097
0.067041
0.067187
0.066821
0.036701
0.067979
0.045313
0.045996
0.064058
0.051168
0.045532
0.045868
0.038540
0.038677
0.043872
0.043118
0.068931
0.066973
0.068340
0.067712
0.055425
0.055237
0.049589
0.055512
0.018868
0.018117
0.019197
0.017589
0.046737
0.046702
0.060776
0.032088
0.030278
0.031244
0.050554
0.043911
0.041521
0.041982
0.020815
0.020715
0.018967
0.021707
0.047856
0.047988
0.046749
0.039159
0.039382
0.040177
0.062531
0.062586
0.051707
0.052067
0.048825
0.048706
0.046566
0.039163
0.061028
0.060145
0.059413
0.067080
0.058395
0.058758
0.058612
0.059739
0.016763
0.017207
0.016265
0.014596
0.070410
0.070142
0.050504
0.050745
0.031626
0.031679
0.063588
0.063857
0.061748
0.060847
0.053476
0.058728
0.057743
0.058167
0.051442
0.051425
0.051807
0.053989
0.020622
0.020607
0.031035
0.030711
0.065760
0.036085
0.037932
0.036841
0.038117
0.009398
0.007457
0.011243
0.009149
0.009635
0.075631
0.073263
0.065616
0.050783
0.031527
0.073826
0.065608
0.051241
0.034695
0.068781
0.012065
0.054242
0.034555
0.054429
0.035748
0.075288
0.068913
