# vtk DataFile Version 2.0
Unstructured Grid Example
ASCII
DATASET UNSTRUCTURED_GRID
POINTS 2044 float
1.053964 -0.003649 -0.054571 
0.005083 0.947010 0.052429 
-1.054083 -0.003114 -0.050533 
0.006629 -0.945714 0.052798 
-0.003687 0.001898 1.000172 
1.048259 -0.099654 -0.054997 
1.031736 -0.195506 -0.051690 
1.001380 -0.289422 -0.048233 
0.963724 -0.380545 -0.040163 
0.915202 -0.466413 -0.032028 
0.859643 -0.546892 -0.023254 
0.796211 -0.621855 -0.012957 
0.724823 -0.690170 -0.003098 
0.647114 -0.749681 0.007279 
0.565150 -0.802377 0.017946 
0.478771 -0.846490 0.027988 
0.389017 -0.881024 0.036154 
0.296387 -0.910395 0.044423 
0.200580 -0.930347 0.048612 
0.104381 -0.941580 0.051624 
-0.089952 -0.943411 0.051012 
-0.187506 -0.930622 0.047452 
-0.283322 -0.911769 0.042207 
-0.377974 -0.884776 0.035491 
-0.467639 -0.849443 0.027291 
-0.555779 -0.807642 0.019783 
-0.639344 -0.755745 0.009905 
-0.718120 -0.694913 -0.000750 
-0.790398 -0.627052 -0.011324 
-0.856604 -0.552469 -0.019498 
-0.914081 -0.472340 -0.028857 
-0.963112 -0.384685 -0.037181 
-1.002542 -0.293815 -0.043054 
-1.030267 -0.198554 -0.047917 
-1.047898 -0.101271 -0.049834 
-1.048802 0.095936 -0.048847 
-1.031986 0.193577 -0.046164 
-1.004160 0.287379 -0.040616 
-0.965984 0.378310 -0.034112 
-0.918107 0.466527 -0.026179 
-0.859666 0.547976 -0.018124 
-0.795188 0.623435 -0.008325 
-0.722773 0.691616 0.001405 
-0.644567 0.751091 0.010503 
-0.560486 0.803426 0.018854 
-0.471815 0.847076 0.028032 
-0.380886 0.882239 0.035560 
-0.285749 0.910138 0.042721 
-0.189763 0.930382 0.048673 
-0.092930 0.942378 0.050884 
0.102972 0.940904 0.051071 
0.201336 0.929311 0.048957 
0.297608 0.909779 0.044552 
0.390503 0.878932 0.038280 
0.481230 0.841582 0.027089 
0.570234 0.797750 0.019362 
0.652532 0.744746 0.010228 
0.730072 0.684332 -0.000478 
0.801694 0.617792 -0.009531 
0.864330 0.542418 -0.019556 
0.919635 0.461409 -0.029123 
0.967610 0.377116 -0.036727 
1.003483 0.285831 -0.043709 
1.031743 0.191634 -0.050749 
1.049649 0.094458 -0.052588 
1.055156 -0.004172 0.045285 
1.045305 -0.004114 0.143667 
1.023892 -0.002920 0.241427 
0.992031 -0.003193 0.337868 
0.950046 -0.002135 0.430742 
0.897985 -0.001910 0.519757 
0.836742 -0.000882 0.603083 
0.768236 0.000067 0.681541 
0.690624 -0.001074 0.751297 
0.606513 -0.000796 0.816987 
0.514289 -0.000158 0.870991 
0.417855 0.000447 0.916713 
0.316682 0.000152 0.952382 
0.212290 0.001374 0.979096 
0.105146 0.001610 0.995047 
-0.003348 0.089665 0.995729 
-0.003598 0.176804 0.982153 
-0.002538 0.264326 0.961619 
-0.002321 0.348609 0.931433 
-0.001466 0.430334 0.893264 
-0.000639 0.506762 0.846012 
0.000579 0.579977 0.792887 
0.002954 0.647109 0.731292 
0.003306 0.708718 0.664684 
0.003892 0.764030 0.590131 
0.003806 0.813627 0.510317 
0.004827 0.855864 0.425447 
0.005383 0.890516 0.336933 
0.005250 0.916688 0.244417 
0.005137 0.936018 0.149081 
-0.111408 0.002440 0.995399 
-0.218734 0.001630 0.978907 
-0.323341 0.001568 0.953522 
-0.423239 0.001329 0.916338 
-0.518561 0.000304 0.870459 
-0.610104 0.000383 0.816303 
-0.693277 -0.001800 0.752810 
-0.769203 -0.002154 0.681420 
-0.839649 -0.001651 0.604308 
-0.899927 -0.001470 0.521313 
-0.951874 -0.001509 0.433178 
-0.991344 -0.002160 0.339767 
-1.022597 -0.002533 0.243979 
-1.044522 -0.003443 0.146485 
-1.054252 -0.003273 0.047969 
-0.003483 -0.085779 0.996644 
-0.003183 -0.172885 0.983981 
-0.002148 -0.259051 0.962559 
-0.002006 -0.343145 0.931561 
-0.000369 -0.425577 0.893357 
0.000068 -0.502501 0.847170 
-0.000050 -0.576048 0.794417 
0.001409 -0.645149 0.734316 
0.001196 -0.706461 0.666129 
0.002077 -0.762367 0.592207 
0.004360 -0.812387 0.511748 
0.005389 -0.855291 0.427183 
0.005522 -0.890026 0.338719 
0.006600 -0.916743 0.246004 
0.006823 -0.935755 0.150447 
0.821707 0.420071 0.439144 
0.366275 0.340677 0.864636 
0.358126 0.800795 0.406410 
0.952468 0.306031 0.280150 
0.992864 0.255611 0.196176 
1.017438 0.196965 0.167743 
1.031672 0.188492 0.084192 
0.547572 0.743179 0.339093 
0.562630 0.292648 0.784604 
0.300459 0.622622 0.697859 
0.763196 0.595170 0.281194 
0.779419 0.264846 0.605546 
0.792010 0.600521 0.180488 
0.822262 0.169730 0.595642 
0.225520 0.487323 0.829913 
0.224873 0.754208 0.565554 
0.883953 0.482965 0.188891 
0.893643 0.193214 0.485487 
0.146495 0.381284 0.906865 
0.146687 0.832267 0.458704 
0.430158 0.697242 0.539068 
0.434821 0.473542 0.760878 
0.440175 0.841407 0.186992 
0.460830 0.140544 0.884519 
0.938254 0.413913 0.124111 
0.956057 0.166665 0.378979 
0.097314 0.313572 0.939606 
0.099513 0.867351 0.389130 
0.293048 0.898427 0.156583 
0.308445 0.101554 0.949214 
0.986152 0.334976 0.048625 
1.000430 0.087787 0.305410 
0.605855 0.539927 0.584673 
0.091234 0.255070 0.960448 
0.092941 0.888996 0.326574 
0.233488 0.914655 0.132162 
0.244492 0.077689 0.967851 
1.031720 0.103054 0.182667 
1.013553 0.259014 0.026452 
1.047245 0.091522 0.086459 
0.700996 0.394923 0.614794 
0.692846 0.586927 0.426400 
0.558292 0.668454 0.469262 
0.567006 0.420772 0.715577 
0.809875 0.517458 0.330153 
0.814406 0.321125 0.527891 
0.754254 0.468391 0.490365 
0.414047 0.593492 0.673318 
0.357133 0.168833 0.922750 
0.341597 0.868849 0.225553 
0.410339 0.822016 0.305951 
0.424758 0.249366 0.876257 
0.360646 0.668519 0.624920 
0.360394 0.550679 0.738398 
0.497301 0.718406 0.447789 
0.506443 0.391993 0.770540 
0.294233 0.424866 0.847950 
0.291018 0.776773 0.500164 
0.499498 0.792495 0.271421 
0.517325 0.223492 0.835274 
0.328639 0.486742 0.798396 
0.327294 0.727811 0.562186 
0.247706 0.369487 0.889822 
0.243903 0.817447 0.444103 
0.899473 0.411786 0.284679 
0.922988 0.255509 0.394346 
0.466858 0.317716 0.830306 
0.454629 0.778556 0.375654 
0.395681 0.755360 0.471645 
0.403034 0.404931 0.818322 
0.111843 0.522010 0.828357 
0.113814 0.747067 0.604519 
0.226565 0.695253 0.643766 
0.226166 0.564629 0.773558 
0.082751 0.445491 0.880724 
0.084513 0.801610 0.526772 
0.696000 0.278137 0.685807 
0.678759 0.661594 0.306540 
0.515415 0.821367 0.098471 
0.543305 0.066957 0.851220 
0.192878 0.852940 0.395066 
0.194724 0.320065 0.923306 
0.230687 0.896791 0.234190 
0.239140 0.170661 0.956601 
0.464564 0.626360 0.605224 
0.454403 0.527490 0.710646 
0.286497 0.268414 0.919117 
0.277864 0.855353 0.336028 
0.993020 0.191302 0.267313 
0.970594 0.335831 0.159201 
0.185873 0.442236 0.868461 
0.183770 0.790313 0.520177 
0.436600 0.856724 0.091148 
0.463592 0.052296 0.895249 
0.366376 0.878854 0.124699 
0.388812 0.077351 0.924809 
0.064083 0.384675 0.913159 
0.067586 0.835408 0.463367 
0.118734 0.910008 0.246626 
0.117855 0.179472 0.975446 
0.170845 0.251119 0.950872 
0.167785 0.882702 0.323143 
0.657577 0.462228 0.608616 
0.653214 0.571734 0.499541 
0.585535 0.610940 0.521272 
0.591692 0.475129 0.658090 
0.786762 0.395730 0.514466 
0.790501 0.492169 0.409133 
0.688454 0.503642 0.536674 
0.584095 0.752782 0.245543 
0.605631 0.209719 0.785150 
0.858945 0.476960 0.283812 
0.868536 0.288064 0.468852 
0.721818 0.534880 0.458196 
0.726483 0.430564 0.560949 
0.835919 0.355123 0.471657 
0.757729 0.356486 0.579924 
0.748240 0.561892 0.377644 
0.513295 0.656040 0.532149 
0.518259 0.474392 0.710990 
0.888914 0.352980 0.382107 
0.848021 0.447895 0.357530 
0.960470 0.226548 0.334177 
1.007324 0.255261 0.110780 
0.603586 0.685211 0.384975 
0.615905 0.343719 0.722446 
0.699096 0.339932 0.653067 
0.685600 0.626211 0.370489 
0.541940 0.595901 0.581627 
0.515236 0.550097 0.651274 
0.189620 0.637295 0.718087 
0.631903 0.627369 0.448250 
0.641279 0.408347 0.664537 
0.105073 0.608432 0.763270 
0.107122 0.678949 0.692842 
0.718157 0.657919 0.223498 
0.739817 0.204014 0.673964 
1.053140 0.077504 0.010878 
0.579803 0.139590 0.818728 
0.553668 0.788655 0.174034 
0.804057 0.078159 0.636394 
0.772727 0.640384 0.081031 
0.843306 0.246986 0.534837 
0.825770 0.538157 0.242234 
0.839196 0.565851 0.095827 
0.867090 0.087965 0.556906 
0.148655 0.083236 0.985399 
0.145144 0.928624 0.140806 
0.968766 0.071535 0.387724 
0.943531 0.419589 0.042014 
0.901245 0.486650 0.067004 
0.926641 0.087521 0.464537 
0.931184 0.395417 0.209043 
0.658492 0.242252 0.734504 
0.637928 0.705601 0.272979 
0.066054 0.938702 0.112119 
0.063421 0.056050 0.996814 
0.064701 0.117355 0.991336 
0.067806 0.928723 0.179297 
0.695905 0.708011 0.080448 
0.727427 0.068268 0.714871 
0.609210 0.768778 0.091331 
0.640498 0.068023 0.787553 
0.741876 0.659355 0.139695 
0.767797 0.128397 0.665426 
0.651149 0.725154 0.175746 
0.678331 0.151310 0.746657 
0.837284 0.549250 0.177768 
-0.484030 0.423577 0.770235 
-0.384661 0.808828 0.369463 
-0.919729 0.358802 0.308353 
-0.364441 0.293192 0.887954 
-0.278221 0.254333 0.927314 
-0.237532 0.187979 0.955345 
-0.180201 0.122666 0.978699 
-0.334845 0.735214 0.545646 
-0.852065 0.303310 0.493363 
-0.709270 0.650709 0.277645 
-0.307951 0.576988 0.738900 
-0.683368 0.266107 0.705914 
-0.197308 0.569638 0.776804 
-0.698044 0.174682 0.725915 
-0.548969 0.779852 0.228905 
-0.860246 0.517828 0.190399 
-0.225207 0.473713 0.838930 
-0.544498 0.201366 0.831649 
-0.421749 0.853091 0.168888 
-0.944272 0.409260 0.104938 
-0.798664 0.492617 0.387290 
-0.541184 0.711144 0.418911 
-0.154891 0.827423 0.461077 
-0.959218 0.148093 0.385431 
-0.177031 0.401707 0.891450 
-0.465167 0.148447 0.886155 
-0.345118 0.886900 0.130113 
-0.981830 0.337737 0.054031 
-0.109987 0.887822 0.327982 
-1.017858 0.108289 0.237485 
-0.387842 0.085206 0.926534 
-0.102036 0.322340 0.936946 
-0.621906 0.547107 0.564350 
-0.278258 0.903937 0.128314 
-1.008552 0.274562 0.043996 
-0.082462 0.907347 0.272152 
-1.034391 0.081185 0.177630 
-0.259185 0.100031 0.964862 
-0.120907 0.205000 0.971272 
-0.175919 0.055840 0.985168 
-0.456151 0.579930 0.661075 
-0.676670 0.399503 0.640950 
-0.480530 0.670313 0.538829 
-0.768791 0.431704 0.509388 
-0.596048 0.318441 0.752912 
-0.373927 0.506546 0.768084 
-0.541192 0.464461 0.704157 
-0.680442 0.624431 0.385416 
-0.186847 0.863390 0.370020 
-0.990539 0.179504 0.287199 
-0.279261 0.817515 0.425131 
-0.940892 0.261287 0.356572 
[...]
POINT_DATA 2044
SCALARS u float 1
LOOKUP_TABLE default
4.134588
4.020686
3.986565
4.090630
0.223345
4.113823
3.905728
3.529533
3.046565
2.499931
2.020518
1.581165
1.329426
1.482617
1.910321
2.461920
3.036374
3.477911
3.781152
4.019382
3.935210
3.738132
3.347763
2.853000
2.291752
1.666601
1.103760
0.885118
1.184407
1.719908
2.325705
2.910656
3.380152
3.711274
3.907482
3.904724
3.710697
3.355316
2.925516
2.417609
1.849443
1.404534
1.187996
1.417894
1.837591
2.406645
2.948225
3.418695
3.781381
3.955698
4.019439
3.837455
3.513361
3.204779
2.667789
2.236263
1.889199
1.740667
1.855711
2.176055
2.619868
3.087642
3.444211
3.874507
4.078561
4.303151
4.445350
4.462885
4.392648
4.270665
4.066468
3.821366
3.565622
3.244159
2.850284
2.381917
1.931674
1.441547
0.932952
0.393378
0.485076
1.005591
1.425945
1.882292
2.293796
2.740820
3.117662
3.484668
3.828636
4.083243
4.234919
4.331168
4.377439
4.361493
4.214771
0.732559
1.279345
1.790324
2.220960
2.611964
3.046034
3.351349
3.618010
3.935474
4.120103
4.290299
4.304294
4.325619
4.317290
4.169844
0.689189
1.219315
1.711658
2.170134
2.541402
2.978119
3.344347
3.642200
3.968078
4.210339
4.332538
4.409214
4.455037
4.416905
4.280507
3.348658
2.332007
3.941525
3.857391
3.992292
4.231911
4.184774
3.206231
2.807124
3.438702
2.820196
3.473615
2.589887
3.711866
2.715153
3.975544
3.026218
4.006029
2.090536
4.217229
3.592548
2.942993
3.393298
2.181503
3.200682
4.187022
1.708648
4.358675
3.802326
1.515269
3.498391
4.436002
3.225672
1.381472
4.434719
3.950660
1.144088
4.448176
3.754729
4.349146
3.253966
3.089458
3.308545
3.001690
3.092952
3.549809
3.281708
3.390123
1.794987
3.833056
3.704461
2.214922
3.539467
3.196492
3.482440
2.839636
2.584218
3.989282
3.327609
2.516645
2.924827
3.767693
2.246764
4.161459
3.455039
3.940093
2.552080
3.542237
3.746792
2.692145
2.865237
3.992942
3.769902
3.114289
2.428259
4.178958
3.201850
2.878290
2.756424
2.486306
4.234955
1.900468
4.110981
1.408677
3.420224
3.182680
1.837605
4.098595
4.249402
3.605779
2.465992
4.140424
3.175948
2.163573
3.557998
1.834170
2.082712
4.339291
4.345051
1.073606
1.580303
4.313068
3.175797
3.174749
3.250915
3.126009
3.396829
3.215122
3.236414
2.908137
2.855635
3.204642
3.734985
3.164648
3.284301
3.502621
3.368202
3.053144
3.395452
3.066119
3.621593
3.331625
4.126839
3.889777
3.120388
3.004515
3.259727
2.990851
3.295982
3.260583
3.477932
3.147999
3.170478
3.292662
3.642705
2.679865
3.347959
4.245190
2.712904
2.799418
3.656248
2.157000
3.772278
2.854760
2.415287
3.941033
0.712582
4.117099
4.369125
2.991258
2.706461
4.181186
3.414137
3.067945
2.876059
4.164883
0.295958
0.643037
4.273093
2.143976
3.335949
2.380214
2.960820
2.360304
3.458532
2.562416
3.148900
2.735589
2.793434
3.427304
3.531202
2.326337
1.899262
1.570542
1.202585
3.466621
3.629766
2.228891
3.121182
3.282425
3.067257
3.348520
2.495390
2.586141
2.688948
2.778521
3.006544
3.029625
2.866118
2.782834
4.049807
4.140853
2.248023
2.453785
3.292208
3.274177
4.255481
4.277598
2.058835
1.806315
2.847185
3.652217
3.590005
4.253286
4.277055
1.480981
1.250330
1.067054
2.996944
3.133231
2.981932
3.141494
2.994586
2.911203
2.920794
2.547206
4.054801
4.124101
3.805787
3.855195
2.460818
2.527789
3.095284
3.276467
2.924180
3.007213
3.748199
3.871651
2.713020
2.630583
3.209173
3.179090
2.426806
2.624074
3.611306
3.519681
3.312649
3.110701
2.101205
2.036496
2.199174
2.155250
2.481886
2.507064
3.423961
3.254724
4.171935
4.246031
3.390265
3.385021
4.035122
4.036035
2.681120
2.663613
3.772799
3.727479
2.037993
2.778506
2.708860
4.209790
4.304038
4.228009
4.291735
2.864744
2.873742
3.927462
3.890489
3.697683
3.710525
2.892116
2.992767
2.962970
2.851580
2.864746
2.898638
2.931059
3.648639
3.870259
2.836668
2.709829
3.010495
2.950557
2.772230
3.030088
3.068285
1.991377
2.818022
2.972160
2.620523
2.790799
1.618271
3.227182
3.374096
3.142106
3.281025
2.848514
2.736820
1.920497
3.127975
3.010924
1.688890
1.667909
3.536386
3.392528
4.075576
3.932800
3.290197
3.445643
2.886085
3.084960
3.123931
2.951649
4.154936
4.149622
2.440578
2.152386
2.515487
2.867661
3.630815
3.433965
4.062498
4.117845
3.966364
4.034155
2.427326
3.598447
3.797802
3.908173
4.088651
3.247377
3.358329
3.582028
3.849052
3.675473
0.862308
0.537467
2.794785
3.499013
3.358053
2.374459
1.975617
1.651674
3.588593
3.540951
2.038610
3.179076
3.209925
3.207757
3.340251
2.431699
2.345082
2.776050
2.772610
3.005511
2.932621
2.707548
2.841749
4.146385
4.211522
2.471358
2.433030
3.280414
3.213432
4.232089
4.316194
2.055214
2.129414
2.751089
3.617911
3.580963
4.247630
4.339882
1.722266
1.754248
2.999359
2.974129
3.030040
2.971553
2.889861
2.976027
2.806703
2.434153
4.154622
4.141410
3.901717
3.829367
2.443046
2.307828
3.152638
3.102344
2.929789
2.792574
3.882343
3.893659
2.509950
2.676705
3.117930
3.229155
2.547555
2.646360
3.508307
3.592816
3.004274
3.156953
1.854318
1.943079
1.906539
1.999908
2.439202
2.337146
3.398453
3.361548
4.192608
4.215248
3.422845
3.326983
4.128865
4.146095
2.592803
2.646968
3.721203
3.829021
2.099416
2.096314
2.582733
2.651370
4.258190
4.338376
4.235964
4.347778
2.759473
2.849749
3.888309
3.905818
3.692210
3.724256
2.836869
2.835565
2.806093
2.853642
2.841821
2.847941
2.804704
3.868117
3.779500
2.835132
2.789496
2.865079
2.866520
2.857919
2.977953
2.986716
2.845163
2.793680
2.627716
2.710219
3.307499
3.295309
3.161094
3.170150
2.378050
2.667744
2.646375
1.641236
2.997198
3.025308
1.376254
1.437995
3.470690
3.504518
4.029142
4.099810
3.432832
3.439631
2.948572
3.067845
3.103965
3.090524
4.182526
4.250779
2.357457
2.452682
2.797093
2.811501
3.608504
3.593031
4.175458
4.093217
3.988902
3.993479
2.474860
3.761149
3.824725
4.041400
4.001217
3.193114
3.550601
3.545891
3.818142
3.834559
1.353149
1.343417
0.946621
1.336569
3.192879
3.906180
2.443740
3.792477
4.038179
4.188604
4.264406
4.274561
3.009133
2.794098
3.515238
2.539204
3.510088
2.266380
3.645965
4.075891
2.912123
2.743852
3.941546
4.397938
2.363854
2.949631
3.573669
3.200300
2.227483
4.224251
3.191807
4.431429
1.972462
3.737774
1.527283
3.389752
4.406798
3.073091
4.464147
1.651034
3.877043
1.193352
3.890991
4.400859
2.855663
3.126225
3.179206
2.914318
3.467020
2.843402
3.056372
3.406015
3.673484
1.907321
3.589716
2.312031
3.647263
3.205699
3.375406
2.793278
4.006877
2.673343
3.111581
2.608351
2.948251
3.867807
2.394299
4.175236
3.245953
3.744132
2.567322
3.519109
2.680118
3.751437
3.073352
4.146481
3.227181
3.863828
4.386800
2.674729
3.184759
2.518939
2.547495
2.523482
4.306191
2.117503
4.121895
1.496406
3.147016
3.458855
2.039560
4.090162
4.209089
3.697659
2.695268
4.259048
2.973133
2.132487
3.362902
1.849330
2.331497
4.416164
4.335941
1.282339
1.714196
4.306647
2.960812
3.046554
3.031513
3.145894
2.965203
3.273991
3.030694
2.614794
2.908800
3.649356
2.958108
3.118728
2.928089
3.048282
2.811015
3.241092
3.309792
2.988874
3.368129
3.451182
2.912088
2.957327
2.749355
3.198380
3.469320
3.096137
3.289346
3.692931
3.082974
2.956769
3.497844
3.874631
3.371854
2.242115
2.756795
2.558640
1.828768
3.753423
2.681761
3.717812
3.928510
2.157860
4.153343
0.844858
4.305374
2.982664
2.589845
4.165988
3.073443
2.508253
0.476222
4.145761
0.863645
4.323796
3.998701
1.756943
3.433568
2.047370
2.996894
3.957216
1.956190
3.525453
3.167498
2.193219
4.015184
4.438384
0.145226
2.287347
2.283160
2.233387
2.163455
1.933347
2.102081
2.054379
1.848825
2.983463
2.329397
1.358592
1.347170
1.205955
3.160210
2.241937
1.300059
2.909369
3.117582
2.184635
2.308705
1.160908
3.210891
3.221361
3.175625
3.270724
2.437249
1.882283
1.614337
2.138948
2.850842
2.141352
2.153609
2.715307
1.964564
1.636170
1.411663
1.752223
2.255735
1.848448
2.252426
2.107357
1.190436
1.953660
2.922449
3.502932
3.573779
2.957086
1.590672
3.646766
0.719685
2.788869
3.146436
3.622820
2.957881
2.240899
1.536418
0.847145
2.567757
2.990656
2.819211
2.570634
0.815023
3.509076
2.155525
1.963105
2.015710
2.459709
0.751565
2.805865
2.843364
3.317023
2.000899
2.056897
2.965229
2.581003
2.540332
1.939416
1.883967
1.717529
1.729387
1.639047
1.566319
2.653791
1.870085
2.255551
2.543061
1.842026
1.800200
2.494063
0.584461
2.035524
2.487016
3.461613
1.598834
2.111603
2.044699
0.933284
3.697536
1.744955
1.918241
3.386612
1.415734
3.436249
1.769394
1.178152
2.353636
3.739719
1.995266
2.651146
3.631241
1.803596
2.193307
2.561228
1.602857
3.556151
3.455716
1.872923
2.673876
1.829626
2.180256
1.172312
1.426238
3.775762
3.198062
2.041484
0.904586
2.317708
1.981751
2.089902
2.680442
2.631639
3.708917
2.541538
1.976979
2.080525
2.064060
1.604703
2.787208
3.230491
2.839016
2.781247
2.094221
1.240343
1.665093
2.810046
2.388283
1.906443
1.251498
1.849602
2.769019
3.086669
2.121306
2.126115
1.716239
1.778202
1.154089
1.103665
3.252224
3.807378
0.687329
3.305167
2.884328
2.358064
2.918023
2.848498
2.342305
2.892986
2.604161
2.058494
2.236675
2.914490
1.784992
1.115120
2.807365
1.720812
1.619306
1.811686
2.091371
2.543178
1.993678
3.754397
2.541446
3.262153
3.178862
3.872767
3.363384
0.417032
2.260398
3.209874
3.324216
1.762696
2.133936
0.606116
1.565683
1.254430
2.210164
2.779004
2.325401
2.867503
2.215221
1.844434
3.064131
1.865016
0.782747
0.480628
2.129302
3.495221
3.275873
2.409113
3.827345
3.093968
2.347707
3.419109
2.473007
2.681208
1.687908
3.213493
1.581535
1.502874
2.674560
2.171296
2.336094
2.785583
2.204700
3.579297
3.222694
1.989998
1.484865
0.321652
3.491017
2.119433
3.660766
3.097166
3.920454
2.329894
3.059853
3.916625
2.992461
2.380493
2.192348
3.528565
1.988865
3.189930
1.903381
3.503739
2.318595
2.564217
3.521670
1.994622
1.918406
2.411043
1.490021
1.756619
1.965907
2.728016
1.845035
1.945429
1.454317
2.125856
1.945581
3.175828
3.005618
0.991539
2.313692
1.980133
0.985088
1.782242
2.673927
1.523096
1.216740
3.520062
2.525457
2.596263
2.281476
1.627050
1.262277
1.866519
3.106935
1.881092
1.688995
2.483983
3.006640
2.469244
2.991979
2.530739
1.946583
3.687320
0.352249
1.044800
2.072982
1.994644
1.953821
2.266637
3.738871
1.614764
2.102108
2.680325
1.731818
1.746431
2.424985
1.576341
1.650701
1.482095
3.888268
3.861873
2.334940
2.531372
1.054789
3.165514
1.881421
2.563940
1.856787
0.922650
1.935213
1.512810
1.987434
0.816328
3.439679
2.301365
2.115290
2.573566
2.120445
1.952312
3.355413
1.823009
2.379972
1.905458
2.852512
2.422488
3.124534
2.989791
1.845116
3.048557
3.486672
2.306301
1.541321
1.425294
2.027296
3.475589
2.465073
1.862091
2.132856
3.343276
2.349424
1.941266
1.585013
2.508460
1.942511
2.196856
1.628788
3.245990
2.821520
2.608773
2.595406
1.997207
2.862746
1.228269
2.177993
1.921817
1.479957
1.880890
2.099870
1.585607
3.866070
1.932661
0.552401
1.660434
1.801854
2.079318
2.534290
1.582342
3.265506
2.647492
3.535843
3.977174
2.611720
3.560042
2.833996
3.253712
2.966468
2.206254
2.425415
1.877655
3.499714
2.696421
3.221779
2.287522
1.473105
1.619542
2.089718
1.744754
2.266049
2.390145
0.941345
1.140267
3.803457
1.186118
0.789028
3.627806
2.169112
3.018002
3.167173
1.082599
1.039850
2.145980
3.980989
3.903631
2.167819
3.207709
3.181661
2.423798
1.529026
3.339274
3.286356
4.099469
3.761027
3.868557
3.818042
3.120864
2.302140
2.277163
2.151644
2.428188
3.282826
3.266362
2.621847
4.100190
3.980307
1.519714
2.118712
1.565215
0.804911
0.779880
1.600873
0.717185
0.655280
0.735844
1.655386
1.657689
0.782591
1.626055
2.533742
1.666136
1.674361
1.571285
1.615408
1.963477
0.851740
0.899648
1.526211
0.718703
0.789317
0.763550
1.544547
2.481630
1.657621
0.724775
0.637194
2.698708
2.475518
2.634836
2.484587
2.539571
2.352302
3.126770
2.485573
2.886240
2.432666
3.087592
2.303193
2.730332
2.709174
2.619731
2.547126
2.531144
2.747502
2.613976
2.493474
2.512020
2.473085
2.522953
3.110450
3.002468
3.320408
2.797995
2.593560
2.957656
2.746963
2.509424
3.192014
4.034444
3.585910
2.493658
3.242686
3.214010
3.778341
3.448592
1.432493
3.979049
3.834386
3.479226
2.357518
1.523639
2.506584
2.313106
1.921082
2.857279
2.986149
3.061274
2.954596
2.857124
2.482666
2.489855
2.587190
2.810765
2.990044
2.688080
2.718802
3.073430
3.053369
1.416022
1.637397
2.830814
2.855337
2.241150
2.001010
1.604746
1.659901
1.982131
1.607212
1.693723
1.611723
2.217634
4.080400
3.577481
3.678946
3.941833
2.596418
1.452036
1.027513
1.096445
0.396948
2.459808
1.233473
1.560539
1.582903
3.946591
3.960529
3.214099
2.362925
3.301831
4.191221
3.241162
2.374332
3.108069
3.350284
2.470297
4.085062
2.899445
2.598355
2.386965
2.561298
2.521230
1.999231
2.441079
3.162183
2.716931
3.181124
3.851000
3.510102
2.589402
2.460171
4.041651
3.670179
3.053686
2.377250
1.863187
4.064780
3.483808
1.690418
3.771327
3.922950
2.674420
3.036133
2.763557
2.913062
3.193524
3.136802
3.087496
3.355118
3.719664
3.508912
2.933959
3.823945
3.550216
3.984117
3.687833
2.769020
0.260088
0.285213
1.631668
0.698051
0.704208
0.760325
0.769542
3.208351
0.688634
2.463062
3.817418
3.851460
2.776974
2.387024
3.037070
3.132598
2.788874
2.521397
3.211481
3.295480
3.294081
2.514100
3.123854
3.127525
4.098165
2.351274
2.939357
2.339302
2.565240
2.560291
2.550361
2.460161
1.998973
1.941035
2.580959
2.729649
2.520047
2.670558
3.719044
4.142636
3.824920
1.577240
3.991407
1.840254
2.301202
1.688956
1.826665
1.789862
2.300489
3.816385
2.618786
2.513345
1.941067
2.339007
3.881531
1.587309
2.683553
2.680624
2.672193
2.851851
2.738769
3.810195
2.691791
2.955223
2.454937
2.948199
2.823236
3.043896
3.125177
2.836765
2.863304
3.116304
2.663557
2.727287
2.633566
0.338150
4.060490
3.977923
3.722044
4.079025
3.774507
4.199758
3.928374
4.191929
1.012717
0.830277
1.304033
1.317639
0.860259
0.452607
0.729318
3.531294
3.556084
3.904240
3.833671
2.537324
2.922762
2.340588
2.378395
2.611693
2.990245
2.705680
2.455808
3.270842
3.423329
2.889453
3.219841
2.668845
2.478273
2.336183
2.325637
3.214379
3.209438
3.149150
2.528033
3.857835
4.039707
3.830829
3.456965
3.952988
2.750747
2.777506
2.900927
2.774976
2.890987
2.790235
2.966573
3.059183
3.043057
2.376520
2.825348
2.799505
2.298723
3.908003
2.727817
3.116217
3.552579
3.145645
3.534824
2.715153
3.088157
1.130747
1.749441
0.692906
2.425089
2.557752
1.479288
1.489994
1.491695
1.832745
1.503404
2.453641
2.106712
2.269413
2.325299
1.495150
1.821362
1.636979
1.794536
0.646530
1.571655
2.352544
2.087405
2.356767
1.948105
2.067552
0.684092
1.236110
0.649819
0.694871
2.042516
2.149708
2.154815
1.588038
1.610538
2.012655
1.155702
3.621154
2.627802
2.286642
2.442757
2.648537
2.396363
1.611343
1.240871
1.311822
1.652349
1.726914
1.928105
2.083474
2.200966
2.275061
2.127008
3.764662
2.349603
1.944919
1.938398
2.124134
2.863353
3.010055
2.673731
2.553502
2.896380
2.836119
2.345088
2.789494
2.995088
2.698691
2.652444
2.304159
2.262112
2.766022
2.403595
2.733554
2.352685
2.309230
1.966523
2.487843
2.548546
2.673143
2.840563
2.344198
2.324665
2.733516
2.331937
2.068939
2.316638
1.467305
3.685994
3.881720
0.877547
2.519818
1.602776
1.579586
2.313196
2.312798
2.652638
1.579855
3.421061
3.507147
3.625566
2.240293
3.068320
1.153900
1.257343
1.328534
0.737855
3.183688
3.355195
3.363272
3.165485
3.028382
3.199251
2.098843
2.157119
2.381317
2.490488
0.745184
3.855645
3.228087
3.404410
3.150251
1.958289
1.532845
2.080368
0.664513
2.788326
2.931338
3.798735
2.031939
3.376141
3.087865
3.435632
0.666286
1.641455
1.763460
2.541056
2.790909
2.864705
2.757676
2.809140
2.018066
3.058351
1.491334
1.916507
1.635887
1.092721
2.633828
2.901942
3.091515
2.180955
2.408800
2.564345
2.771206
1.816001
1.917885
2.128117
2.152838
2.353343
3.162868
1.936016
2.361001
2.269807
2.349034
3.898776
4.094726
3.384352
0.359601
2.305302
1.980417
2.407218
2.816935
2.592460
2.423967
2.792736
2.414595
2.835550
1.948912
2.461768
0.728555
0.720119
0.765689
1.163098
1.247608
1.236992
2.645825
2.399774
2.433402
2.009925
2.543249
2.314662
2.950388
2.643930
2.843333
2.184034
2.461673
2.752714
2.058265
1.862417
2.009350
1.706444
1.990942
1.611021
1.502591
1.704049
1.915672
3.327934
2.521839
1.083452
1.065154
1.173292
3.493951
2.328747
1.646299
2.238059
2.470371
2.391303
2.755009
2.362011
3.183737
3.105930
3.258987
3.400721
2.787407
3.215188
3.310378
3.052687
3.289670
2.642376
2.872584
2.804374
3.736333
3.890937
3.183641
2.966323
2.018888
2.116086
2.893388
3.411332
3.337623
2.213392
2.289254
3.486729
3.402069
3.631155
1.548907
1.624651
1.694363
1.993144
1.569389
1.233863
1.700955
1.153802
2.186168
2.106114
2.339102
3.030291
3.629415
3.782201
3.526869
2.155680
2.673882
1.659411
3.514141
2.014274
1.516123
3.537682
1.746406
1.446595
2.700435
2.479789
2.910132
2.717170
2.832547
0.903358
2.447075
2.558307
3.456582
3.621164
3.014485
3.154284
2.261012
3.207267
3.339268
3.214233
3.030178
2.504918
2.764470
2.584124
2.268723
0.288935
0.273042
0.300068
2.177441
2.368356
1.435698
3.071446
3.246456
2.829233
2.691840
2.890685
3.477433
1.950489
3.145339
3.035092
2.689552
2.482441
2.393620
2.476000
2.294214
2.630440
1.974888
1.977911
3.590957
2.865263
0.690649
3.304128
3.111280
3.494584
3.469758
3.616446
2.300894
2.968247
3.172394
2.017205
2.161878
2.522731
2.279645
1.394716
1.218357
1.529206
3.263421
0.674722
2.875137
2.663779
2.824343
2.931937
2.153768
2.038023
2.593393
1.071477
1.183659
2.068373
2.709766
2.887674
3.331413
0.901082
3.450561
3.288943
3.643590
2.612644
0.327322
1.195427
1.275052
2.412194
2.913331
1.757209
1.590871
1.702710
2.165530
1.324623
2.444732
2.583493
2.727157
2.273218
2.435750
3.617043
3.842825
2.263611
2.145619
3.681681
3.826761
2.412013
2.234496
3.528486
2.782568
2.657656
2.519104
3.756056
3.487152
2.856875
2.407719
3.810764
3.072187
3.235325
2.757604
1.782540
1.975502
3.240621
3.705319
3.967982
2.243479
0.948895
1.263945
1.354582
1.000130
1.919237
2.107115
2.414411
1.245958
1.323789
2.822230
2.960181
2.912498
2.228096
2.374535
2.031387
2.479139
2.150256
2.536517
3.078811
2.605055
3.176152
3.620648
3.200752
0.849417
0.854287
1.104881
1.317553
0.415236
0.855250
1.299884
1.301310
1.467792
1.395571
2.263745
2.705957
2.310494
1.889953
2.723413
1.483597
2.357943
2.700271
2.301053
2.006610
2.741467
1.696181
1.446344
1.295043
0.816600
1.077591
1.339099
1.862314
1.398355
1.847197
1.902363
1.525498
2.003088
1.495303
1.342272
1.716153
1.473682
2.004174
1.971478
0.830977
0.401377
1.056983
1.900468
1.862936
2.014193
1.500054
2.270885
2.262165
2.328052
2.418787
3.252489
2.594253
1.896814
1.612258
2.245793
2.222308
1.375808
1.517126
1.418647
1.310559
2.335363
1.837604
1.952219
2.688756
2.663844
2.657274
2.269018
3.094947
3.274912
2.665854
2.669726
2.631675
2.271069
2.486210
2.349811
2.669222
2.646877
2.871082
2.884708
3.192900
2.538224
2.125162
2.770207
2.481363
2.609197
2.690023
3.053860
2.665114
2.596651
2.636450
2.325828
3.211594
2.907767
