# vtk DataFile Version 2.0
Unstructured Grid Example
ASCII
DATASET UNSTRUCTURED_GRID
POINTS 2044 float
0.862790 0.009278 0.138754 
-0.012923 1.134735 -0.133308 
-0.862486 0.007918 0.128486 
-0.016856 -1.138030 -0.134245 
0.009375 -0.004825 0.999564 
0.860237 -0.093856 0.139838 
0.851237 -0.194034 0.131428 
0.843948 -0.292477 0.122639 
0.822570 -0.388120 0.102121 
0.797301 -0.484068 0.081435 
0.759836 -0.577637 0.059128 
0.714020 -0.666274 0.032945 
0.662060 -0.750171 0.007878 
0.602048 -0.832330 -0.018508 
0.531213 -0.905442 -0.045631 
0.452647 -0.972010 -0.071163 
0.366579 -1.032844 -0.091927 
0.274769 -1.075287 -0.112951 
0.181132 -1.109030 -0.123602 
0.081836 -1.131481 -0.131261 
-0.118524 -1.126825 -0.129705 
-0.214375 -1.108332 -0.120652 
-0.307988 -1.071794 -0.107316 
-0.394658 -1.023305 -0.090240 
-0.480951 -0.964501 -0.069391 
-0.555041 -0.892055 -0.050302 
-0.621804 -0.816909 -0.025185 
-0.679103 -0.738111 0.001906 
-0.728801 -0.653059 0.028792 
-0.767563 -0.563455 0.049577 
-0.800150 -0.468997 0.073372 
-0.824127 -0.377594 0.094539 
-0.840993 -0.281309 0.109470 
-0.854971 -0.186283 0.121834 
-0.861154 -0.089743 0.126709 
-0.858855 0.103308 0.124201 
-0.850600 0.198938 0.117379 
-0.836878 0.297673 0.103271 
-0.816823 0.393803 0.086735 
-0.789915 0.483778 0.066563 
-0.759776 0.574879 0.046082 
-0.716620 0.662256 0.021166 
-0.667272 0.746494 -0.003571 
-0.608525 0.828743 -0.026705 
-0.543072 0.902774 -0.047940 
-0.470334 0.970520 -0.071274 
-0.387253 1.029755 -0.090416 
-0.301816 1.075941 -0.108623 
-0.208636 1.108941 -0.123757 
-0.110951 1.129453 -0.129379 
0.085418 1.133200 -0.129855 
0.179211 1.111665 -0.124480 
0.271664 1.076854 -0.113279 
0.362801 1.038163 -0.097333 
0.446394 0.984489 -0.068878 
0.518285 0.917207 -0.049230 
0.588274 0.844878 -0.026006 
0.648715 0.765016 0.001215 
0.700079 0.676605 0.024235 
0.747917 0.589010 0.049724 
0.786028 0.496793 0.074049 
0.812689 0.396839 0.093384 
0.838599 0.301609 0.111136 
0.851218 0.203878 0.129035 
0.856703 0.107066 0.133712 
0.842701 0.010608 0.232095 
0.816735 0.010461 0.325842 
0.786707 0.007426 0.414511 
0.750595 0.008119 0.496634 
0.708705 0.005430 0.574767 
0.662346 0.004857 0.646629 
0.610964 0.002243 0.714003 
0.551677 -0.000169 0.772112 
0.491420 0.002730 0.828219 
0.426042 0.002025 0.868295 
0.362337 0.000402 0.909712 
0.293256 -0.001136 0.942100 
0.223166 -0.000386 0.968529 
0.151357 -0.003493 0.985080 
0.079890 -0.004094 0.995535 
0.008512 0.119253 0.993801 
0.009150 0.241585 0.977308 
0.006454 0.356287 0.945045 
0.005901 0.469322 0.904673 
0.003728 0.575805 0.853081 
0.001624 0.679672 0.794493 
-0.001472 0.772754 0.722471 
-0.007510 0.859658 0.645612 
-0.008405 0.936483 0.557374 
-0.009895 1.002944 0.467695 
-0.009677 1.055569 0.372438 
-0.012273 1.096817 0.273951 
-0.013686 1.125834 0.171676 
-0.013348 1.143761 0.069671 
-0.013062 1.145624 -0.031819 
-0.063969 -0.006205 0.994641 
-0.134973 -0.004144 0.985560 
-0.206234 -0.003987 0.965633 
-0.279565 -0.003378 0.943054 
-0.351474 -0.000772 0.911065 
-0.416911 -0.000974 0.870033 
-0.484674 0.004578 0.824374 
-0.549219 0.005476 0.772420 
-0.603574 0.004197 0.710889 
-0.657408 0.003737 0.642673 
-0.704056 0.003836 0.568574 
-0.752342 0.005493 0.491804 
-0.789998 0.006441 0.408023 
-0.818727 0.008753 0.318675 
-0.844999 0.008322 0.225272 
0.008855 -0.129134 0.991474 
0.008093 -0.251550 0.972660 
0.005462 -0.369701 0.942655 
0.005100 -0.483216 0.904349 
0.000937 -0.587901 0.852844 
-0.000174 -0.690505 0.791549 
0.000128 -0.782744 0.718580 
-0.003582 -0.864641 0.637923 
-0.003042 -0.942222 0.553700 
-0.005280 -1.007171 0.462416 
-0.011086 -1.058721 0.368799 
-0.013703 -1.098275 0.269537 
-0.014041 -1.127080 0.167135 
-0.016780 -1.143620 0.065636 
-0.017349 -1.146294 -0.035294 
0.633624 0.512620 0.507399 
0.267980 0.458534 0.860469 
0.288701 1.022795 0.291399 
0.739601 0.364854 0.405509 
0.782170 0.299077 0.347159 
0.795281 0.230274 0.332530 
0.818601 0.215616 0.256713 
0.447207 0.916911 0.273539 
0.408921 0.391632 0.811580 
0.219307 0.823499 0.632200 
0.621193 0.713290 0.299987 
0.579943 0.341554 0.686906 
0.657801 0.702070 0.207805 
0.603257 0.218958 0.692219 
0.168620 0.652444 0.791863 
0.170264 0.984353 0.453529 
0.718111 0.559143 0.268793 
0.664448 0.245903 0.604846 
0.110274 0.510526 0.876441 
0.109786 1.066116 0.313676 
0.334919 0.900142 0.463585 
0.323062 0.630193 0.738340 
0.381257 1.022945 0.070903 
0.328741 0.189002 0.913327 
0.766586 0.468152 0.233598 
0.723257 0.206375 0.521133 
0.076808 0.422606 0.921056 
0.071218 1.104774 0.230488 
0.256349 1.090346 0.000121 
0.217200 0.140041 0.961214 
0.804803 0.365983 0.187167 
0.757223 0.110552 0.465462 
0.460250 0.694453 0.580682 
0.069757 0.342220 0.945791 
0.065415 1.127467 0.160412 
0.203036 1.112955 -0.033349 
0.175055 0.105157 0.977696 
0.799983 0.127493 0.360021 
0.828011 0.285098 0.187681 
0.828914 0.110550 0.270707 
0.525601 0.510414 0.657078 
0.546325 0.727933 0.430377 
0.438903 0.845281 0.425441 
0.416746 0.548734 0.725466 
0.643362 0.624456 0.377957 
0.616193 0.410470 0.613578 
0.578137 0.586776 0.530904 
0.310434 0.783671 0.619402 
0.255270 0.227492 0.934878 
0.294775 1.071927 0.083272 
0.341689 1.024194 0.188109 
0.305025 0.331984 0.886279 
0.268695 0.867242 0.545233 
0.269337 0.734001 0.689565 
0.394340 0.911282 0.378812 
0.371094 0.520682 0.778724 
0.219359 0.575522 0.822655 
0.227535 1.003631 0.384068 
0.419732 0.974704 0.179619 
0.374403 0.301484 0.865933 
0.244807 0.656253 0.762150 
0.248227 0.941621 0.464426 
0.186129 0.502336 0.868909 
0.195801 1.052930 0.312615 
0.708000 0.490535 0.378877 
0.703513 0.313406 0.519889 
0.337306 0.424266 0.839856 
0.368399 0.971437 0.276952 
0.312690 0.966353 0.374500 
0.293994 0.544130 0.806264 
0.084327 0.700817 0.774959 
0.079314 0.981650 0.491027 
0.165542 0.917488 0.551660 
0.166556 0.752878 0.718389 
0.064446 0.598741 0.839075 
0.059965 1.040233 0.392073 
0.512963 0.364732 0.744375 
0.556797 0.805935 0.292527 
0.458153 0.969923 0.011400 
0.387240 0.091529 0.894016 
0.152592 1.083711 0.243900 
0.147898 0.434600 0.904795 
0.192893 1.110458 0.072439 
0.171400 0.233972 0.958382 
0.358087 0.817513 0.552100 
0.337122 0.697659 0.676168 
0.209973 0.362040 0.915497 
0.231924 1.077626 0.190121 
0.764183 0.232301 0.422920 
0.778339 0.382743 0.290298 
0.137787 0.592428 0.829916 
0.143133 1.028619 0.394252 
0.394019 1.022694 -0.028671 
0.325388 0.070113 0.924741 
0.329868 1.062167 -0.016471 
0.272821 0.103920 0.945320 
0.052535 0.517762 0.882271 
0.043629 1.079964 0.317677 
0.089872 1.136515 0.074331 
0.092107 0.245079 0.970131 
0.125119 0.343894 0.939675 
0.132900 1.113005 0.160764 
0.495298 0.592804 0.626695 
0.506391 0.720472 0.497928 
0.456254 0.779836 0.497517 
0.440600 0.614842 0.659950 
0.596675 0.496708 0.575114 
0.613956 0.598408 0.457566 
0.525184 0.639263 0.555275 
0.491736 0.910831 0.189470 
0.436979 0.280548 0.828535 
0.682610 0.570570 0.352018 
0.659868 0.362329 0.575633 
0.561378 0.666266 0.478243 
0.549518 0.548502 0.599980 
0.640793 0.442584 0.557957 
0.568212 0.454153 0.640859 
0.592338 0.686707 0.400357 
0.398185 0.840219 0.479283 
0.385564 0.626137 0.700503 
0.685981 0.427555 0.482610 
0.662066 0.540688 0.427648 
0.732099 0.275567 0.472940 
0.809519 0.291465 0.269328 
0.484909 0.848618 0.347379 
0.453588 0.452277 0.753943 
0.516762 0.442173 0.701580 
0.551079 0.769865 0.364478 
0.415970 0.769538 0.549005 
0.386837 0.719425 0.620971 
0.137527 0.846249 0.640312 
0.497692 0.784103 0.428978 
0.473853 0.530437 0.689597 
0.073361 0.807708 0.684081 
0.070768 0.895375 0.596160 
0.598255 0.787283 0.219734 
0.542246 0.267957 0.747830 
0.845629 0.095295 0.197234 
0.414749 0.189310 0.865448 
0.481202 0.941910 0.101742 
0.586041 0.100855 0.735852 
0.662702 0.728382 0.098795 
0.626979 0.317787 0.634151 
0.674966 0.637527 0.294242 
0.708777 0.638442 0.150638 
0.636495 0.113127 0.673127 
0.110759 0.110722 0.988411 
0.119686 1.132770 -0.035658 
0.723696 0.092618 0.536817 
0.786529 0.461075 0.153407 
0.755341 0.540753 0.153787 
0.688078 0.113469 0.599381 
0.744373 0.459862 0.316128 
0.478899 0.319242 0.785608 
0.531353 0.858872 0.241368 
0.046638 1.142803 -0.069937 
0.053332 0.072624 0.995045 
0.054406 0.158025 0.985677 
0.046512 1.144880 0.000527 
0.605399 0.814905 0.063012 
0.525383 0.092373 0.797505 
0.536877 0.896172 0.035720 
0.457266 0.094551 0.848515 
0.629907 0.767053 0.142725 
0.562023 0.168508 0.754246 
0.556117 0.860290 0.141626 
0.486540 0.202712 0.806221 
0.689808 0.637772 0.231136 
-0.348865 0.548142 0.764460 
-0.346697 1.002370 0.259875 
-0.720389 0.412448 0.415255 
-0.246639 0.391034 0.885824 
-0.187121 0.339941 0.924961 
-0.156285 0.251890 0.953157 
-0.111481 0.161872 0.975813 
-0.284343 0.937162 0.452105 
-0.640052 0.364523 0.585042 
-0.603186 0.752086 0.277316 
-0.231955 0.759518 0.682969 
-0.489035 0.338347 0.766840 
-0.149386 0.757266 0.719586 
-0.493586 0.223783 0.792108 
-0.495700 0.919150 0.160012 
-0.714738 0.574880 0.257918 
-0.160661 0.634904 0.804463 
-0.373882 0.259651 0.862509 
-0.407639 1.013170 0.053337 
-0.781329 0.439393 0.215940 
-0.642262 0.581691 0.443915 
-0.458203 0.864795 0.363515 
-0.152523 1.058501 0.328113 
-0.723396 0.169809 0.520451 
-0.123093 0.536550 0.862982 
-0.311729 0.194219 0.907528 
-0.342396 1.055069 -0.006586 
-0.813696 0.361161 0.186861 
-0.118597 1.117311 0.167527 
-0.786678 0.122914 0.397625 
-0.255836 0.109065 0.945929 
-0.064335 0.433082 0.915602 
-0.486012 0.676198 0.565782 
-0.283261 1.089478 -0.024524 
-0.823480 0.292658 0.189865 
-0.093020 1.131537 0.104726 
-0.808511 0.096266 0.345063 
-0.167298 0.132242 0.969869 
-0.074292 0.272189 0.961886 
-0.107391 0.071106 0.987525 
-0.354733 0.745723 0.627107 
-0.499749 0.498767 0.678276 
-0.396792 0.840553 0.488392 
-0.590162 0.520939 0.563249 
-0.424255 0.408513 0.788119 
-0.276212 0.667851 0.733972 
-0.401669 0.596768 0.705513 
-0.562589 0.743704 0.383233 
-0.181687 1.085809 0.222506 
-0.762515 0.200359 0.433088 
-0.255972 1.035637 0.304077 
-0.721935 0.301672 0.478397 
[...]
POINT_DATA 2044
SCALARS u float 1
LOOKUP_TABLE default
4.134588
4.020686
3.986565
4.090630
0.223345
4.113823
3.905728
3.529533
3.046565
2.499931
2.020518
1.581165
1.329426
1.482617
1.910321
2.461920
3.036374
3.477911
3.781152
4.019382
3.935210
3.738132
3.347763
2.853000
2.291752
1.666601
1.103760
0.885118
1.184407
1.719908
2.325705
2.910656
3.380152
3.711274
3.907482
3.904724
3.710697
3.355316
2.925516
2.417609
1.849443
1.404534
1.187996
1.417894
1.837591
2.406645
2.948225
3.418695
3.781381
3.955698
4.019439
3.837455
3.513361
3.204779
2.667789
2.236263
1.889199
1.740667
1.855711
2.176055
2.619868
3.087642
3.444211
3.874507
4.078561
4.303151
4.445350
4.462885
4.392648
4.270665
4.066468
3.821366
3.565622
3.244159
2.850284
2.381917
1.931674
1.441547
0.932952
0.393378
0.485076
1.005591
1.425945
1.882292
2.293796
2.740820
3.117662
3.484668
3.828636
4.083243
4.234919
4.331168
4.377439
4.361493
4.214771
0.732559
1.279345
1.790324
2.220960
2.611964
3.046034
3.351349
3.618010
3.935474
4.120103
4.290299
4.304294
4.325619
4.317290
4.169844
0.689189
1.219315
1.711658
2.170134
2.541402
2.978119
3.344347
3.642200
3.968078
4.210339
4.332538
4.409214
4.455037
4.416905
4.280507
3.348658
2.332007
3.941525
3.857391
3.992292
4.231911
4.184774
3.206231
2.807124
3.438702
2.820196
3.473615
2.589887
3.711866
2.715153
3.975544
3.026218
4.006029
2.090536
4.217229
3.592548
2.942993
3.393298
2.181503
3.200682
4.187022
1.708648
4.358675
3.802326
1.515269
3.498391
4.436002
3.225672
1.381472
4.434719
3.950660
1.144088
4.448176
3.754729
4.349146
3.253966
3.089458
3.308545
3.001690
3.092952
3.549809
3.281708
3.390123
1.794987
3.833056
3.704461
2.214922
3.539467
3.196492
3.482440
2.839636
2.584218
3.989282
3.327609
2.516645
2.924827
3.767693
2.246764
4.161459
3.455039
3.940093
2.552080
3.542237
3.746792
2.692145
2.865237
3.992942
3.769902
3.114289
2.428259
4.178958
3.201850
2.878290
2.756424
2.486306
4.234955
1.900468
4.110981
1.408677
3.420224
3.182680
1.837605
4.098595
4.249402
3.605779
2.465992
4.140424
3.175948
2.163573
3.557998
1.834170
2.082712
4.339291
4.345051
1.073606
1.580303
4.313068
3.175797
3.174749
3.250915
3.126009
3.396829
3.215122
3.236414
2.908137
2.855635
3.204642
3.734985
3.164648
3.284301
3.502621
3.368202
3.053144
3.395452
3.066119
3.621593
3.331625
4.126839
3.889777
3.120388
3.004515
3.259727
2.990851
3.295982
3.260583
3.477932
3.147999
3.170478
3.292662
3.642705
2.679865
3.347959
4.245190
2.712904
2.799418
3.656248
2.157000
3.772278
2.854760
2.415287
3.941033
0.712582
4.117099
4.369125
2.991258
2.706461
4.181186
3.414137
3.067945
2.876059
4.164883
0.295958
0.643037
4.273093
2.143976
3.335949
2.380214
2.960820
2.360304
3.458532
2.562416
3.148900
2.735589
2.793434
3.427304
3.531202
2.326337
1.899262
1.570542
1.202585
3.466621
3.629766
2.228891
3.121182
3.282425
3.067257
3.348520
2.495390
2.586141
2.688948
2.778521
3.006544
3.029625
2.866118
2.782834
4.049807
4.140853
2.248023
2.453785
3.292208
3.274177
4.255481
4.277598
2.058835
1.806315
2.847185
3.652217
3.590005
4.253286
4.277055
1.480981
1.250330
1.067054
2.996944
3.133231
2.981932
3.141494
2.994586
2.911203
2.920794
2.547206
4.054801
4.124101
3.805787
3.855195
2.460818
2.527789
3.095284
3.276467
2.924180
3.007213
3.748199
3.871651
2.713020
2.630583
3.209173
3.179090
2.426806
2.624074
3.611306
3.519681
3.312649
3.110701
2.101205
2.036496
2.199174
2.155250
2.481886
2.507064
3.423961
3.254724
4.171935
4.246031
3.390265
3.385021
4.035122
4.036035
2.681120
2.663613
3.772799
3.727479
2.037993
2.778506
2.708860
4.209790
4.304038
4.228009
4.291735
2.864744
2.873742
3.927462
3.890489
3.697683
3.710525
2.892116
2.992767
2.962970
2.851580
2.864746
2.898638
2.931059
3.648639
3.870259
2.836668
2.709829
3.010495
2.950557
2.772230
3.030088
3.068285
1.991377
2.818022
2.972160
2.620523
2.790799
1.618271
3.227182
3.374096
3.142106
3.281025
2.848514
2.736820
1.920497
3.127975
3.010924
1.688890
1.667909
3.536386
3.392528
4.075576
3.932800
3.290197
3.445643
2.886085
3.084960
3.123931
2.951649
4.154936
4.149622
2.440578
2.152386
2.515487
2.867661
3.630815
3.433965
4.062498
4.117845
3.966364
4.034155
2.427326
3.598447
3.797802
3.908173
4.088651
3.247377
3.358329
3.582028
3.849052
3.675473
0.862308
0.537467
2.794785
3.499013
3.358053
2.374459
1.975617
1.651674
3.588593
3.540951
2.038610
3.179076
3.209925
3.207757
3.340251
2.431699
2.345082
2.776050
2.772610
3.005511
2.932621
2.707548
2.841749
4.146385
4.211522
2.471358
2.433030
3.280414
3.213432
4.232089
4.316194
2.055214
2.129414
2.751089
3.617911
3.580963
4.247630
4.339882
1.722266
1.754248
2.999359
2.974129
3.030040
2.971553
2.889861
2.976027
2.806703
2.434153
4.154622
4.141410
3.901717
3.829367
2.443046
2.307828
3.152638
3.102344
2.929789
2.792574
3.882343
3.893659
2.509950
2.676705
3.117930
3.229155
2.547555
2.646360
3.508307
3.592816
3.004274
3.156953
1.854318
1.943079
1.906539
1.999908
2.439202
2.337146
3.398453
3.361548
4.192608
4.215248
3.422845
3.326983
4.128865
4.146095
2.592803
2.646968
3.721203
3.829021
2.099416
2.096314
2.582733
2.651370
4.258190
4.338376
4.235964
4.347778
2.759473
2.849749
3.888309
3.905818
3.692210
3.724256
2.836869
2.835565
2.806093
2.853642
2.841821
2.847941
2.804704
3.868117
3.779500
2.835132
2.789496
2.865079
2.866520
2.857919
2.977953
2.986716
2.845163
2.793680
2.627716
2.710219
3.307499
3.295309
3.161094
3.170150
2.378050
2.667744
2.646375
1.641236
2.997198
3.025308
1.376254
1.437995
3.470690
3.504518
4.029142
4.099810
3.432832
3.439631
2.948572
3.067845
3.103965
3.090524
4.182526
4.250779
2.357457
2.452682
2.797093
2.811501
3.608504
3.593031
4.175458
4.093217
3.988902
3.993479
2.474860
3.761149
3.824725
4.041400
4.001217
3.193114
3.550601
3.545891
3.818142
3.834559
1.353149
1.343417
0.946621
1.336569
3.192879
3.906180
2.443740
3.792477
4.038179
4.188604
4.264406
4.274561
3.009133
2.794098
3.515238
2.539204
3.510088
2.266380
3.645965
4.075891
2.912123
2.743852
3.941546
4.397938
2.363854
2.949631
3.573669
3.200300
2.227483
4.224251
3.191807
4.431429
1.972462
3.737774
1.527283
3.389752
4.406798
3.073091
4.464147
1.651034
3.877043
1.193352
3.890991
4.400859
2.855663
3.126225
3.179206
2.914318
3.467020
2.843402
3.056372
3.406015
3.673484
1.907321
3.589716
2.312031
3.647263
3.205699
3.375406
2.793278
4.006877
2.673343
3.111581
2.608351
2.948251
3.867807
2.394299
4.175236
3.245953
3.744132
2.567322
3.519109
2.680118
3.751437
3.073352
4.146481
3.227181
3.863828
4.386800
2.674729
3.184759
2.518939
2.547495
2.523482
4.306191
2.117503
4.121895
1.496406
3.147016
3.458855
2.039560
4.090162
4.209089
3.697659
2.695268
4.259048
2.973133
2.132487
3.362902
1.849330
2.331497
4.416164
4.335941
1.282339
1.714196
4.306647
2.960812
3.046554
3.031513
3.145894
2.965203
3.273991
3.030694
2.614794
2.908800
3.649356
2.958108
3.118728
2.928089
3.048282
2.811015
3.241092
3.309792
2.988874
3.368129
3.451182
2.912088
2.957327
2.749355
3.198380
3.469320
3.096137
3.289346
3.692931
3.082974
2.956769
3.497844
3.874631
3.371854
2.242115
2.756795
2.558640
1.828768
3.753423
2.681761
3.717812
3.928510
2.157860
4.153343
0.844858
4.305374
2.982664
2.589845
4.165988
3.073443
2.508253
0.476222
4.145761
0.863645
4.323796
3.998701
1.756943
3.433568
2.047370
2.996894
3.957216
1.956190
3.525453
3.167498
2.193219
4.015184
4.438384
0.145226
2.287347
2.283160
2.233387
2.163455
1.933347
2.102081
2.054379
1.848825
2.983463
2.329397
1.358592
1.347170
1.205955
3.160210
2.241937
1.300059
2.909369
3.117582
2.184635
2.308705
1.160908
3.210891
3.221361
3.175625
3.270724
2.437249
1.882283
1.614337
2.138948
2.850842
2.141352
2.153609
2.715307
1.964564
1.636170
1.411663
1.752223
2.255735
1.848448
2.252426
2.107357
1.190436
1.953660
2.922449
3.502932
3.573779
2.957086
1.590672
3.646766
0.719685
2.788869
3.146436
3.622820
2.957881
2.240899
1.536418
0.847145
2.567757
2.990656
2.819211
2.570634
0.815023
3.509076
2.155525
1.963105
2.015710
2.459709
0.751565
2.805865
2.843364
3.317023
2.000899
2.056897
2.965229
2.581003
2.540332
1.939416
1.883967
1.717529
1.729387
1.639047
1.566319
2.653791
1.870085
2.255551
2.543061
1.842026
1.800200
2.494063
0.584461
2.035524
2.487016
3.461613
1.598834
2.111603
2.044699
0.933284
3.697536
1.744955
1.918241
3.386612
1.415734
3.436249
1.769394
1.178152
2.353636
3.739719
1.995266
2.651146
3.631241
1.803596
2.193307
2.561228
1.602857
3.556151
3.455716
1.872923
2.673876
1.829626
2.180256
1.172312
1.426238
3.775762
3.198062
2.041484
0.904586
2.317708
1.981751
2.089902
2.680442
2.631639
3.708917
2.541538
1.976979
2.080525
2.064060
1.604703
2.787208
3.230491
2.839016
2.781247
2.094221
1.240343
1.665093
2.810046
2.388283
1.906443
1.251498
1.849602
2.769019
3.086669
2.121306
2.126115
1.716239
1.778202
1.154089
1.103665
3.252224
3.807378
0.687329
3.305167
2.884328
2.358064
2.918023
2.848498
2.342305
2.892986
2.604161
2.058494
2.236675
2.914490
1.784992
1.115120
2.807365
1.720812
1.619306
1.811686
2.091371
2.543178
1.993678
3.754397
2.541446
3.262153
3.178862
3.872767
3.363384
0.417032
2.260398
3.209874
3.324216
1.762696
2.133936
0.606116
1.565683
1.254430
2.210164
2.779004
2.325401
2.867503
2.215221
1.844434
3.064131
1.865016
0.782747
0.480628
2.129302
3.495221
3.275873
2.409113
3.827345
3.093968
2.347707
3.419109
2.473007
2.681208
1.687908
3.213493
1.581535
1.502874
2.674560
2.171296
2.336094
2.785583
2.204700
3.579297
3.222694
1.989998
1.484865
0.321652
3.491017
2.119433
3.660766
3.097166
3.920454
2.329894
3.059853
3.916625
2.992461
2.380493
2.192348
3.528565
1.988865
3.189930
1.903381
3.503739
2.318595
2.564217
3.521670
1.994622
1.918406
2.411043
1.490021
1.756619
1.965907
2.728016
1.845035
1.945429
1.454317
2.125856
1.945581
3.175828
3.005618
0.991539
2.313692
1.980133
0.985088
1.782242
2.673927
1.523096
1.216740
3.520062
2.525457
2.596263
2.281476
1.627050
1.262277
1.866519
3.106935
1.881092
1.688995
2.483983
3.006640
2.469244
2.991979
2.530739
1.946583
3.687320
0.352249
1.044800
2.072982
1.994644
1.953821
2.266637
3.738871
1.614764
2.102108
2.680325
1.731818
1.746431
2.424985
1.576341
1.650701
1.482095
3.888268
3.861873
2.334940
2.531372
1.054789
3.165514
1.881421
2.563940
1.856787
0.922650
1.935213
1.512810
1.987434
0.816328
3.439679
2.301365
2.115290
2.573566
2.120445
1.952312
3.355413
1.823009
2.379972
1.905458
2.852512
2.422488
3.124534
2.989791
1.845116
3.048557
3.486672
2.306301
1.541321
1.425294
2.027296
3.475589
2.465073
1.862091
2.132856
3.343276
2.349424
1.941266
1.585013
2.508460
1.942511
2.196856
1.628788
3.245990
2.821520
2.608773
2.595406
1.997207
2.862746
1.228269
2.177993
1.921817
1.479957
1.880890
2.099870
1.585607
3.866070
1.932661
0.552401
1.660434
1.801854
2.079318
2.534290
1.582342
3.265506
2.647492
3.535843
3.977174
2.611720
3.560042
2.833996
3.253712
2.966468
2.206254
2.425415
1.877655
3.499714
2.696421
3.221779
2.287522
1.473105
1.619542
2.089718
1.744754
2.266049
2.390145
0.941345
1.140267
3.803457
1.186118
0.789028
3.627806
2.169112
3.018002
3.167173
1.082599
1.039850
2.145980
3.980989
3.903631
2.167819
3.207709
3.181661
2.423798
1.529026
3.339274
3.286356
4.099469
3.761027
3.868557
3.818042
3.120864
2.302140
2.277163
2.151644
2.428188
3.282826
3.266362
2.621847
4.100190
3.980307
1.519714
2.118712
1.565215
0.804911
0.779880
1.600873
0.717185
0.655280
0.735844
1.655386
1.657689
0.782591
1.626055
2.533742
1.666136
1.674361
1.571285
1.615408
1.963477
0.851740
0.899648
1.526211
0.718703
0.789317
0.763550
1.544547
2.481630
1.657621
0.724775
0.637194
2.698708
2.475518
2.634836
2.484587
2.539571
2.352302
3.126770
2.485573
2.886240
2.432666
3.087592
2.303193
2.730332
2.709174
2.619731
2.547126
2.531144
2.747502
2.613976
2.493474
2.512020
2.473085
2.522953
3.110450
3.002468
3.320408
2.797995
2.593560
2.957656
2.746963
2.509424
3.192014
4.034444
3.585910
2.493658
3.242686
3.214010
3.778341
3.448592
1.432493
3.979049
3.834386
3.479226
2.357518
1.523639
2.506584
2.313106
1.921082
2.857279
2.986149
3.061274
2.954596
2.857124
2.482666
2.489855
2.587190
2.810765
2.990044
2.688080
2.718802
3.073430
3.053369
1.416022
1.637397
2.830814
2.855337
2.241150
2.001010
1.604746
1.659901
1.982131
1.607212
1.693723
1.611723
2.217634
4.080400
3.577481
3.678946
3.941833
2.596418
1.452036
1.027513
1.096445
0.396948
2.459808
1.233473
1.560539
1.582903
3.946591
3.960529
3.214099
2.362925
3.301831
4.191221
3.241162
2.374332
3.108069
3.350284
2.470297
4.085062
2.899445
2.598355
2.386965
2.561298
2.521230
1.999231
2.441079
3.162183
2.716931
3.181124
3.851000
3.510102
2.589402
2.460171
4.041651
3.670179
3.053686
2.377250
1.863187
4.064780
3.483808
1.690418
3.771327
3.922950
2.674420
3.036133
2.763557
2.913062
3.193524
3.136802
3.087496
3.355118
3.719664
3.508912
2.933959
3.823945
3.550216
3.984117
3.687833
2.769020
0.260088
0.285213
1.631668
0.698051
0.704208
0.760325
0.769542
3.208351
0.688634
2.463062
3.817418
3.851460
2.776974
2.387024
3.037070
3.132598
2.788874
2.521397
3.211481
3.295480
3.294081
2.514100
3.123854
3.127525
4.098165
2.351274
2.939357
2.339302
2.565240
2.560291
2.550361
2.460161
1.998973
1.941035
2.580959
2.729649
2.520047
2.670558
3.719044
4.142636
3.824920
1.577240
3.991407
1.840254
2.301202
1.688956
1.826665
1.789862
2.300489
3.816385
2.618786
2.513345
1.941067
2.339007
3.881531
1.587309
2.683553
2.680624
2.672193
2.851851
2.738769
3.810195
2.691791
2.955223
2.454937
2.948199
2.823236
3.043896
3.125177
2.836765
2.863304
3.116304
2.663557
2.727287
2.633566
0.338150
4.060490
3.977923
3.722044
4.079025
3.774507
4.199758
3.928374
4.191929
1.012717
0.830277
1.304033
1.317639
0.860259
0.452607
0.729318
3.531294
3.556084
3.904240
3.833671
2.537324
2.922762
2.340588
2.378395
2.611693
2.990245
2.705680
2.455808
3.270842
3.423329
2.889453
3.219841
2.668845
2.478273
2.336183
2.325637
3.214379
3.209438
3.149150
2.528033
3.857835
4.039707
3.830829
3.456965
3.952988
2.750747
2.777506
2.900927
2.774976
2.890987
2.790235
2.966573
3.059183
3.043057
2.376520
2.825348
2.799505
2.298723
3.908003
2.727817
3.116217
3.552579
3.145645
3.534824
2.715153
3.088157
1.130747
1.749441
0.692906
2.425089
2.557752
1.479288
1.489994
1.491695
1.832745
1.503404
2.453641
2.106712
2.269413
2.325299
1.495150
1.821362
1.636979
1.794536
0.646530
1.571655
2.352544
2.087405
2.356767
1.948105
2.067552
0.684092
1.236110
0.649819
0.694871
2.042516
2.149708
2.154815
1.588038
1.610538
2.012655
1.155702
3.621154
2.627802
2.286642
2.442757
2.648537
2.396363
1.611343
1.240871
1.311822
1.652349
1.726914
1.928105
2.083474
2.200966
2.275061
2.127008
3.764662
2.349603
1.944919
1.938398
2.124134
2.863353
3.010055
2.673731
2.553502
2.896380
2.836119
2.345088
2.789494
2.995088
2.698691
2.652444
2.304159
2.262112
2.766022
2.403595
2.733554
2.352685
2.309230
1.966523
2.487843
2.548546
2.673143
2.840563
2.344198
2.324665
2.733516
2.331937
2.068939
2.316638
1.467305
3.685994
3.881720
0.877547
2.519818
1.602776
1.579586
2.313196
2.312798
2.652638
1.579855
3.421061
3.507147
3.625566
2.240293
3.068320
1.153900
1.257343
1.328534
0.737855
3.183688
3.355195
3.363272
3.165485
3.028382
3.199251
2.098843
2.157119
2.381317
2.490488
0.745184
3.855645
3.228087
3.404410
3.150251
1.958289
1.532845
2.080368
0.664513
2.788326
2.931338
3.798735
2.031939
3.376141
3.087865
3.435632
0.666286
1.641455
1.763460
2.541056
2.790909
2.864705
2.757676
2.809140
2.018066
3.058351
1.491334
1.916507
1.635887
1.092721
2.633828
2.901942
3.091515
2.180955
2.408800
2.564345
2.771206
1.816001
1.917885
2.128117
2.152838
2.353343
3.162868
1.936016
2.361001
2.269807
2.349034
3.898776
4.094726
3.384352
0.359601
2.305302
1.980417
2.407218
2.816935
2.592460
2.423967
2.792736
2.414595
2.835550
1.948912
2.461768
0.728555
0.720119
0.765689
1.163098
1.247608
1.236992
2.645825
2.399774
2.433402
2.009925
2.543249
2.314662
2.950388
2.643930
2.843333
2.184034
2.461673
2.752714
2.058265
1.862417
2.009350
1.706444
1.990942
1.611021
1.502591
1.704049
1.915672
3.327934
2.521839
1.083452
1.065154
1.173292
3.493951
2.328747
1.646299
2.238059
2.470371
2.391303
2.755009
2.362011
3.183737
3.105930
3.258987
3.400721
2.787407
3.215188
3.310378
3.052687
3.289670
2.642376
2.872584
2.804374
3.736333
3.890937
3.183641
2.966323
2.018888
2.116086
2.893388
3.411332
3.337623
2.213392
2.289254
3.486729
3.402069
3.631155
1.548907
1.624651
1.694363
1.993144
1.569389
1.233863
1.700955
1.153802
2.186168
2.106114
2.339102
3.030291
3.629415
3.782201
3.526869
2.155680
2.673882
1.659411
3.514141
2.014274
1.516123
3.537682
1.746406
1.446595
2.700435
2.479789
2.910132
2.717170
2.832547
0.903358
2.447075
2.558307
3.456582
3.621164
3.014485
3.154284
2.261012
3.207267
3.339268
3.214233
3.030178
2.504918
2.764470
2.584124
2.268723
0.288935
0.273042
0.300068
2.177441
2.368356
1.435698
3.071446
3.246456
2.829233
2.691840
2.890685
3.477433
1.950489
3.145339
3.035092
2.689552
2.482441
2.393620
2.476000
2.294214
2.630440
1.974888
1.977911
3.590957
2.865263
0.690649
3.304128
3.111280
3.494584
3.469758
3.616446
2.300894
2.968247
3.172394
2.017205
2.161878
2.522731
2.279645
1.394716
1.218357
1.529206
3.263421
0.674722
2.875137
2.663779
2.824343
2.931937
2.153768
2.038023
2.593393
1.071477
1.183659
2.068373
2.709766
2.887674
3.331413
0.901082
3.450561
3.288943
3.643590
2.612644
0.327322
1.195427
1.275052
2.412194
2.913331
1.757209
1.590871
1.702710
2.165530
1.324623
2.444732
2.583493
2.727157
2.273218
2.435750
3.617043
3.842825
2.263611
2.145619
3.681681
3.826761
2.412013
2.234496
3.528486
2.782568
2.657656
2.519104
3.756056
3.487152
2.856875
2.407719
3.810764
3.072187
3.235325
2.757604
1.782540
1.975502
3.240621
3.705319
3.967982
2.243479
0.948895
1.263945
1.354582
1.000130
1.919237
2.107115
2.414411
1.245958
1.323789
2.822230
2.960181
2.912498
2.228096
2.374535
2.031387
2.479139
2.150256
2.536517
3.078811
2.605055
3.176152
3.620648
3.200752
0.849417
0.854287
1.104881
1.317553
0.415236
0.855250
1.299884
1.301310
1.467792
1.395571
2.263745
2.705957
2.310494
1.889953
2.723413
1.483597
2.357943
2.700271
2.301053
2.006610
2.741467
1.696181
1.446344
1.295043
0.816600
1.077591
1.339099
1.862314
1.398355
1.847197
1.902363
1.525498
2.003088
1.495303
1.342272
1.716153
1.473682
2.004174
1.971478
0.830977
0.401377
1.056983
1.900468
1.862936
2.014193
1.500054
2.270885
2.262165
2.328052
2.418787
3.252489
2.594253
1.896814
1.612258
2.245793
2.222308
1.375808
1.517126
1.418647
1.310559
2.335363
1.837604
1.952219
2.688756
2.663844
2.657274
2.269018
3.094947
3.274912
2.665854
2.669726
2.631675
2.271069
2.486210
2.349811
2.669222
2.646877
2.871082
2.884708
3.192900
2.538224
2.125162
2.770207
2.481363
2.609197
2.690023
3.053860
2.665114
2.596651
2.636450
2.325828
3.211594
2.907767
