# vtk DataFile Version 2.0
Unstructured Grid Example
ASCII
DATASET UNSTRUCTURED_GRID
POINTS 2044 float
0.959094 0.002766 0.041367 
-0.003853 1.040169 -0.039743 
-0.959003 0.002360 0.038306 
-0.005025 -1.041151 -0.040022 
0.002795 -0.001439 0.999870 
0.954953 -0.096777 0.041690 
0.942163 -0.194775 0.039183 
0.923254 -0.290938 0.036562 
0.893676 -0.384304 0.030445 
0.856694 -0.475174 0.024278 
0.810113 -0.562149 0.017628 
0.755424 -0.643898 0.009822 
0.693677 -0.719945 0.002349 
0.624750 -0.790695 -0.005518 
0.548309 -0.853523 -0.013604 
0.465807 -0.908779 -0.021216 
0.377882 -0.956365 -0.027406 
0.285659 -0.992223 -0.033674 
0.190929 -1.019019 -0.036850 
0.093193 -1.035819 -0.039133 
-0.104131 -1.034431 -0.038669 
-0.200840 -1.018811 -0.035970 
-0.295563 -0.991182 -0.031994 
-0.386253 -0.953521 -0.026903 
-0.474245 -0.906541 -0.020687 
-0.555412 -0.849532 -0.014996 
-0.630640 -0.786098 -0.007509 
-0.698758 -0.716350 0.000568 
-0.759830 -0.639958 0.008584 
-0.812417 -0.557921 0.014780 
-0.857543 -0.470681 0.021874 
-0.894140 -0.381166 0.028185 
-0.922373 -0.287609 0.032636 
-0.943276 -0.192465 0.036322 
-0.955226 -0.095550 0.037776 
-0.954541 0.099595 0.037028 
-0.941973 0.196237 0.034994 
-0.921146 0.292487 0.030788 
-0.891963 0.385999 0.025858 
-0.854492 0.475088 0.019844 
-0.810096 0.561327 0.013738 
-0.756199 0.642700 0.006310 
-0.695231 0.718849 -0.001065 
-0.626681 0.789626 -0.007962 
-0.551844 0.852728 -0.014292 
-0.471080 0.908335 -0.021249 
-0.384046 0.955444 -0.026956 
-0.293723 0.992418 -0.032384 
-0.199129 1.018992 -0.036895 
-0.101873 1.035214 -0.038572 
0.094261 1.036331 -0.038714 
0.190356 1.019804 -0.037111 
0.284733 0.992690 -0.033772 
0.376756 0.957951 -0.029018 
0.463943 0.912500 -0.020535 
0.544454 0.857031 -0.014677 
0.620644 0.794436 -0.007753 
0.689698 0.724371 0.000362 
0.751267 0.646978 0.007225 
0.806560 0.565540 0.014824 
0.853333 0.478968 0.022076 
0.890730 0.386904 0.027841 
0.921659 0.293661 0.033133 
0.942158 0.197710 0.038469 
0.953899 0.100715 0.039863 
0.949725 0.003163 0.137990 
0.931877 0.003119 0.234071 
0.906189 0.002214 0.327320 
0.872218 0.002421 0.416655 
0.830280 0.001619 0.502215 
0.781049 0.001448 0.582718 
0.724700 0.000669 0.658127 
0.660769 -0.000050 0.726487 
0.591769 0.000814 0.789470 
0.516954 0.000604 0.842448 
0.438883 0.000120 0.890207 
0.356023 -0.000339 0.929312 
0.270275 -0.000115 0.960395 
0.182052 -0.001041 0.982066 
0.092613 -0.001221 0.995289 
0.002538 0.104348 0.994772 
0.002728 0.208952 0.979749 
0.001924 0.309962 0.953394 
0.001759 0.408513 0.918153 
0.001112 0.502524 0.873323 
0.000484 0.592569 0.820446 
-0.000439 0.675643 0.757943 
-0.002239 0.752587 0.688773 
-0.002506 0.821747 0.611432 
-0.002950 0.882591 0.529372 
-0.002885 0.933691 0.441894 
-0.003659 0.975437 0.350267 
-0.004080 1.007292 0.254924 
-0.003979 1.029373 0.157699 
-0.003894 1.040035 0.059309 
-0.087866 -0.001850 0.995023 
-0.177168 -0.001235 0.982209 
-0.265227 -0.001189 0.959532 
-0.351941 -0.001007 0.929596 
-0.435644 -0.000230 0.890610 
-0.514232 -0.000290 0.842966 
-0.589757 0.001365 0.788323 
-0.660036 0.001633 0.726578 
-0.722496 0.001251 0.657199 
-0.779577 0.001114 0.581538 
-0.828895 0.001144 0.500368 
-0.872739 0.001638 0.415216 
-0.907170 0.001920 0.325386 
-0.932471 0.002610 0.231935 
-0.950410 0.002481 0.135956 
0.002640 -0.107294 0.994078 
0.002413 -0.211923 0.978363 
0.001628 -0.313961 0.952682 
0.001520 -0.412655 0.918057 
0.000279 -0.506130 0.873252 
-0.000052 -0.595798 0.819568 
0.000038 -0.678621 0.756783 
-0.001068 -0.754073 0.686481 
-0.000907 -0.823457 0.610336 
-0.001574 -0.883851 0.527798 
-0.003305 -0.934630 0.440809 
-0.004085 -0.975872 0.348951 
-0.004186 -1.007664 0.253570 
-0.005003 -1.029331 0.156496 
-0.005172 -1.040235 0.058273 
0.728370 0.465999 0.473015 
0.317496 0.399163 0.862569 
0.323674 0.910963 0.349335 
0.846833 0.335222 0.342359 
0.888307 0.277181 0.271101 
0.907192 0.213495 0.249519 
0.925936 0.201953 0.169806 
0.497766 0.829393 0.306562 
0.486352 0.341769 0.797991 
0.260187 0.722308 0.665276 
0.692727 0.653787 0.290520 
0.680429 0.302912 0.645921 
0.725409 0.650915 0.194044 
0.713581 0.194159 0.643569 
0.197283 0.569264 0.811031 
0.197773 0.868418 0.509962 
0.801654 0.520768 0.228542 
0.779905 0.219361 0.544719 
0.128521 0.445420 0.891767 
0.128375 0.948315 0.386734 
0.382895 0.797931 0.501609 
0.379360 0.551280 0.749693 
0.410937 0.931495 0.129383 
0.395281 0.164591 0.898815 
0.853064 0.440829 0.178444 
0.840530 0.186371 0.449523 
0.087138 0.367680 0.930400 
0.085472 0.985172 0.310404 
0.274836 0.993667 0.078939 
0.263165 0.120653 0.955169 
0.896158 0.350363 0.117377 
0.879738 0.099084 0.384836 
0.533598 0.616611 0.582692 
0.080576 0.298318 0.953175 
0.079281 1.007338 0.244116 
0.218376 1.013061 0.050027 
0.210034 0.091320 0.972737 
0.916720 0.115182 0.270679 
0.921478 0.271958 0.106462 
0.938898 0.100964 0.177892 
0.613956 0.452235 0.635777 
0.620135 0.656901 0.428374 
0.499045 0.756205 0.447516 
0.492440 0.484273 0.720484 
0.727243 0.570556 0.353876 
0.716043 0.365462 0.570414 
0.666855 0.527140 0.510483 
0.362629 0.687868 0.646562 
0.306584 0.197942 0.928768 
0.318361 0.969627 0.154946 
0.376271 0.922347 0.247472 
0.365341 0.290365 0.881230 
0.315016 0.767135 0.585375 
0.315207 0.641652 0.714165 
0.446206 0.814121 0.413559 
0.439276 0.455855 0.774601 
0.257077 0.499629 0.835397 
0.259514 0.889352 0.442551 
0.459914 0.882916 0.225864 
0.446400 0.262196 0.850488 
0.287037 0.570862 0.780409 
0.288057 0.833914 0.513673 
0.217149 0.435413 0.879444 
0.220032 0.934306 0.378852 
0.804454 0.450865 0.331425 
0.814073 0.284240 0.456647 
0.402568 0.370592 0.835045 
0.411837 0.874274 0.326673 
0.354497 0.860065 0.423437 
0.348923 0.474008 0.812338 
0.098188 0.610743 0.801858 
0.096694 0.863479 0.548199 
0.196282 0.805537 0.598058 
0.196585 0.658047 0.746180 
0.073667 0.521542 0.860055 
0.072331 0.920027 0.459928 
0.605168 0.321109 0.714871 
0.618235 0.733223 0.299586 
0.486999 0.895088 0.055262 
0.465857 0.079150 0.872458 
0.172886 0.967460 0.320050 
0.171487 0.376903 0.914120 
0.211932 1.002823 0.153921 
0.205524 0.202079 0.957485 
0.411725 0.721220 0.578861 
0.396202 0.611936 0.693536 
0.248522 0.314876 0.917320 
0.255066 0.965656 0.263622 
0.879460 0.211648 0.344533 
0.875187 0.359111 0.224258 
0.162010 0.516769 0.849333 
0.163604 0.908572 0.457687 
0.415469 0.939087 0.031687 
0.395008 0.061138 0.909884 
0.348258 0.969823 0.054644 
0.331251 0.090536 0.934988 
0.058353 0.450719 0.897831 
0.055698 0.956769 0.391068 
0.104411 1.022412 0.161124 
0.105077 0.212029 0.972808 
0.148153 0.297159 0.945315 
0.150473 0.996990 0.242562 
0.577046 0.527026 0.617588 
0.580353 0.645545 0.498741 
0.521379 0.694754 0.509484 
0.516713 0.544462 0.659013 
0.692431 0.445841 0.544562 
0.702891 0.544890 0.433168 
0.607431 0.570944 0.545905 
0.538262 0.831214 0.217717 
0.521938 0.244868 0.806680 
0.771439 0.523414 0.317659 
0.764985 0.324918 0.521842 
0.642200 0.600080 0.468144 
0.638664 0.489091 0.580318 
0.739087 0.398525 0.514484 
0.663681 0.404953 0.610163 
0.670874 0.623832 0.388915 
0.456172 0.747439 0.505914 
0.452409 0.549696 0.705786 
0.788208 0.389988 0.431982 
0.755741 0.493943 0.392326 
0.847141 0.250874 0.403038 
0.909163 0.273227 0.189459 
0.544693 0.766302 0.366318 
0.535355 0.397591 0.738077 
0.608613 0.390669 0.677142 
0.618844 0.697499 0.367506 
0.479427 0.682068 0.565438 
0.451517 0.634126 0.636236 
0.163769 0.740989 0.679491 
0.565301 0.705148 0.438686 
0.558194 0.468934 0.676973 
0.089336 0.707323 0.723972 
0.089081 0.786350 0.644863 
0.658656 0.722116 0.221630 
0.641772 0.235746 0.710620 
0.950163 0.086333 0.103357 
0.497895 0.164264 0.841913 
0.517706 0.864708 0.138159 
0.695866 0.089422 0.685750 
0.718127 0.684053 0.089846 
0.735954 0.282121 0.584121 
0.750933 0.587470 0.268043 
0.774475 0.601874 0.123027 
0.752657 0.100452 0.614581 
0.129849 0.096876 0.986894 
0.132510 1.029931 0.053236 
0.847150 0.081997 0.461711 
0.865619 0.440176 0.097293 
0.828840 0.513498 0.110070 
0.808254 0.100398 0.531453 
0.838479 0.427398 0.262184 
0.569369 0.280458 0.759864 
0.585040 0.781662 0.257292 
0.056419 1.039987 0.021773 
0.058415 0.064275 0.995936 
0.059592 0.137537 0.988528 
0.057239 1.035991 0.090582 
0.650991 0.761057 0.071795 
0.627163 0.080230 0.755878 
0.573314 0.831998 0.063734 
0.549569 0.081187 0.817806 
0.686311 0.712800 0.141199 
0.665681 0.148302 0.709503 
0.603989 0.792215 0.158814 
0.583155 0.176818 0.776216 
0.764099 0.593179 0.204252 
-0.416954 0.485392 0.767369 
-0.365821 0.904873 0.315080 
-0.820807 0.385424 0.361403 
-0.305982 0.341746 0.886897 
-0.233013 0.296816 0.926146 
-0.197213 0.219695 0.954259 
-0.146099 0.142122 0.977267 
-0.309783 0.835431 0.499226 
-0.746854 0.333687 0.538858 
-0.656626 0.701017 0.277481 
-0.270238 0.667569 0.711144 
-0.586930 0.301956 0.736149 
-0.173527 0.662748 0.748409 
-0.596581 0.199048 0.758763 
-0.522534 0.848979 0.194717 
-0.788037 0.546140 0.223905 
-0.193176 0.553704 0.821825 
-0.459830 0.230290 0.846963 
-0.414747 0.932530 0.111546 
-0.863411 0.424214 0.160023 
-0.721050 0.536820 0.415390 
-0.500005 0.787393 0.391421 
-0.153716 0.942096 0.395093 
-0.842191 0.158869 0.452435 
-0.150265 0.468623 0.877323 
-0.389023 0.171161 0.896761 
-0.343767 0.970354 0.062276 
-0.898393 0.349361 0.119948 
-0.114260 1.001706 0.248356 
-0.903135 0.115547 0.316955 
-0.322334 0.097046 0.936159 
-0.083327 0.377296 0.926354 
-0.554469 0.611168 0.565061 
-0.280740 0.996012 0.052468 
-0.916710 0.283542 0.116384 
-0.087701 1.018601 0.189067 
-0.922298 0.088669 0.260718 
-0.213586 0.116016 0.967346 
-0.097774 0.238343 0.966614 
-0.141911 0.063416 0.986337 
-0.405822 0.662205 0.644218 
-0.588873 0.448763 0.659473 
-0.438975 0.754795 0.513799 
-0.680146 0.475987 0.536117 
-0.510796 0.363139 0.770383 
-0.325436 0.586594 0.751156 
-0.471954 0.530119 0.704830 
-0.621957 0.683620 0.384333 
-0.184286 0.973765 0.296816 
-0.877382 0.189853 0.359597 
-0.267704 0.925758 0.365058 
-0.832235 0.281328 0.417028 
-0.582896 0.752534 0.328313 
[...]
POINT_DATA 2044
SCALARS u float 1
LOOKUP_TABLE default
4.134588
4.020686
3.986565
4.090630
0.223345
4.113823
3.905728
3.529533
3.046565
2.499931
2.020518
1.581165
1.329426
1.482617
1.910321
2.461920
3.036374
3.477911
3.781152
4.019382
3.935210
3.738132
3.347763
2.853000
2.291752
1.666601
1.103760
0.885118
1.184407
1.719908
2.325705
2.910656
3.380152
3.711274
3.907482
3.904724
3.710697
3.355316
2.925516
2.417609
1.849443
1.404534
1.187996
1.417894
1.837591
2.406645
2.948225
3.418695
3.781381
3.955698
4.019439
3.837455
3.513361
3.204779
2.667789
2.236263
1.889199
1.740667
1.855711
2.176055
2.619868
3.087642
3.444211
3.874507
4.078561
4.303151
4.445350
4.462885
4.392648
4.270665
4.066468
3.821366
3.565622
3.244159
2.850284
2.381917
1.931674
1.441547
0.932952
0.393378
0.485076
1.005591
1.425945
1.882292
2.293796
2.740820
3.117662
3.484668
3.828636
4.083243
4.234919
4.331168
4.377439
4.361493
4.214771
0.732559
1.279345
1.790324
2.220960
2.611964
3.046034
3.351349
3.618010
3.935474
4.120103
4.290299
4.304294
4.325619
4.317290
4.169844
0.689189
1.219315
1.711658
2.170134
2.541402
2.978119
3.344347
3.642200
3.968078
4.210339
4.332538
4.409214
4.455037
4.416905
4.280507
3.348658
2.332007
3.941525
3.857391
3.992292
4.231911
4.184774
3.206231
2.807124
3.438702
2.820196
3.473615
2.589887
3.711866
2.715153
3.975544
3.026218
4.006029
2.090536
4.217229
3.592548
2.942993
3.393298
2.181503
3.200682
4.187022
1.708648
4.358675
3.802326
1.515269
3.498391
4.436002
3.225672
1.381472
4.434719
3.950660
1.144088
4.448176
3.754729
4.349146
3.253966
3.089458
3.308545
3.001690
3.092952
3.549809
3.281708
3.390123
1.794987
3.833056
3.704461
2.214922
3.539467
3.196492
3.482440
2.839636
2.584218
3.989282
3.327609
2.516645
2.924827
3.767693
2.246764
4.161459
3.455039
3.940093
2.552080
3.542237
3.746792
2.692145
2.865237
3.992942
3.769902
3.114289
2.428259
4.178958
3.201850
2.878290
2.756424
2.486306
4.234955
1.900468
4.110981
1.408677
3.420224
3.182680
1.837605
4.098595
4.249402
3.605779
2.465992
4.140424
3.175948
2.163573
3.557998
1.834170
2.082712
4.339291
4.345051
1.073606
1.580303
4.313068
3.175797
3.174749
3.250915
3.126009
3.396829
3.215122
3.236414
2.908137
2.855635
3.204642
3.734985
3.164648
3.284301
3.502621
3.368202
3.053144
3.395452
3.066119
3.621593
3.331625
4.126839
3.889777
3.120388
3.004515
3.259727
2.990851
3.295982
3.260583
3.477932
3.147999
3.170478
3.292662
3.642705
2.679865
3.347959
4.245190
2.712904
2.799418
3.656248
2.157000
3.772278
2.854760
2.415287
3.941033
0.712582
4.117099
4.369125
2.991258
2.706461
4.181186
3.414137
3.067945
2.876059
4.164883
0.295958
0.643037
4.273093
2.143976
3.335949
2.380214
2.960820
2.360304
3.458532
2.562416
3.148900
2.735589
2.793434
3.427304
3.531202
2.326337
1.899262
1.570542
1.202585
3.466621
3.629766
2.228891
3.121182
3.282425
3.067257
3.348520
2.495390
2.586141
2.688948
2.778521
3.006544
3.029625
2.866118
2.782834
4.049807
4.140853
2.248023
2.453785
3.292208
3.274177
4.255481
4.277598
2.058835
1.806315
2.847185
3.652217
3.590005
4.253286
4.277055
1.480981
1.250330
1.067054
2.996944
3.133231
2.981932
3.141494
2.994586
2.911203
2.920794
2.547206
4.054801
4.124101
3.805787
3.855195
2.460818
2.527789
3.095284
3.276467
2.924180
3.007213
3.748199
3.871651
2.713020
2.630583
3.209173
3.179090
2.426806
2.624074
3.611306
3.519681
3.312649
3.110701
2.101205
2.036496
2.199174
2.155250
2.481886
2.507064
3.423961
3.254724
4.171935
4.246031
3.390265
3.385021
4.035122
4.036035
2.681120
2.663613
3.772799
3.727479
2.037993
2.778506
2.708860
4.209790
4.304038
4.228009
4.291735
2.864744
2.873742
3.927462
3.890489
3.697683
3.710525
2.892116
2.992767
2.962970
2.851580
2.864746
2.898638
2.931059
3.648639
3.870259
2.836668
2.709829
3.010495
2.950557
2.772230
3.030088
3.068285
1.991377
2.818022
2.972160
2.620523
2.790799
1.618271
3.227182
3.374096
3.142106
3.281025
2.848514
2.736820
1.920497
3.127975
3.010924
1.688890
1.667909
3.536386
3.392528
4.075576
3.932800
3.290197
3.445643
2.886085
3.084960
3.123931
2.951649
4.154936
4.149622
2.440578
2.152386
2.515487
2.867661
3.630815
3.433965
4.062498
4.117845
3.966364
4.034155
2.427326
3.598447
3.797802
3.908173
4.088651
3.247377
3.358329
3.582028
3.849052
3.675473
0.862308
0.537467
2.794785
3.499013
3.358053
2.374459
1.975617
1.651674
3.588593
3.540951
2.038610
3.179076
3.209925
3.207757
3.340251
2.431699
2.345082
2.776050
2.772610
3.005511
2.932621
2.707548
2.841749
4.146385
4.211522
2.471358
2.433030
3.280414
3.213432
4.232089
4.316194
2.055214
2.129414
2.751089
3.617911
3.580963
4.247630
4.339882
1.722266
1.754248
2.999359
2.974129
3.030040
2.971553
2.889861
2.976027
2.806703
2.434153
4.154622
4.141410
3.901717
3.829367
2.443046
2.307828
3.152638
3.102344
2.929789
2.792574
3.882343
3.893659
2.509950
2.676705
3.117930
3.229155
2.547555
2.646360
3.508307
3.592816
3.004274
3.156953
1.854318
1.943079
1.906539
1.999908
2.439202
2.337146
3.398453
3.361548
4.192608
4.215248
3.422845
3.326983
4.128865
4.146095
2.592803
2.646968
3.721203
3.829021
2.099416
2.096314
2.582733
2.651370
4.258190
4.338376
4.235964
4.347778
2.759473
2.849749
3.888309
3.905818
3.692210
3.724256
2.836869
2.835565
2.806093
2.853642
2.841821
2.847941
2.804704
3.868117
3.779500
2.835132
2.789496
2.865079
2.866520
2.857919
2.977953
2.986716
2.845163
2.793680
2.627716
2.710219
3.307499
3.295309
3.161094
3.170150
2.378050
2.667744
2.646375
1.641236
2.997198
3.025308
1.376254
1.437995
3.470690
3.504518
4.029142
4.099810
3.432832
3.439631
2.948572
3.067845
3.103965
3.090524
4.182526
4.250779
2.357457
2.452682
2.797093
2.811501
3.608504
3.593031
4.175458
4.093217
3.988902
3.993479
2.474860
3.761149
3.824725
4.041400
4.001217
3.193114
3.550601
3.545891
3.818142
3.834559
1.353149
1.343417
0.946621
1.336569
3.192879
3.906180
2.443740
3.792477
4.038179
4.188604
4.264406
4.274561
3.009133
2.794098
3.515238
2.539204
3.510088
2.266380
3.645965
4.075891
2.912123
2.743852
3.941546
4.397938
2.363854
2.949631
3.573669
3.200300
2.227483
4.224251
3.191807
4.431429
1.972462
3.737774
1.527283
3.389752
4.406798
3.073091
4.464147
1.651034
3.877043
1.193352
3.890991
4.400859
2.855663
3.126225
3.179206
2.914318
3.467020
2.843402
3.056372
3.406015
3.673484
1.907321
3.589716
2.312031
3.647263
3.205699
3.375406
2.793278
4.006877
2.673343
3.111581
2.608351
2.948251
3.867807
2.394299
4.175236
3.245953
3.744132
2.567322
3.519109
2.680118
3.751437
3.073352
4.146481
3.227181
3.863828
4.386800
2.674729
3.184759
2.518939
2.547495
2.523482
4.306191
2.117503
4.121895
1.496406
3.147016
3.458855
2.039560
4.090162
4.209089
3.697659
2.695268
4.259048
2.973133
2.132487
3.362902
1.849330
2.331497
4.416164
4.335941
1.282339
1.714196
4.306647
2.960812
3.046554
3.031513
3.145894
2.965203
3.273991
3.030694
2.614794
2.908800
3.649356
2.958108
3.118728
2.928089
3.048282
2.811015
3.241092
3.309792
2.988874
3.368129
3.451182
2.912088
2.957327
2.749355
3.198380
3.469320
3.096137
3.289346
3.692931
3.082974
2.956769
3.497844
3.874631
3.371854
2.242115
2.756795
2.558640
1.828768
3.753423
2.681761
3.717812
3.928510
2.157860
4.153343
0.844858
4.305374
2.982664
2.589845
4.165988
3.073443
2.508253
0.476222
4.145761
0.863645
4.323796
3.998701
1.756943
3.433568
2.047370
2.996894
3.957216
1.956190
3.525453
3.167498
2.193219
4.015184
4.438384
0.145226
2.287347
2.283160
2.233387
2.163455
1.933347
2.102081
2.054379
1.848825
2.983463
2.329397
1.358592
1.347170
1.205955
3.160210
2.241937
1.300059
2.909369
3.117582
2.184635
2.308705
1.160908
3.210891
3.221361
3.175625
3.270724
2.437249
1.882283
1.614337
2.138948
2.850842
2.141352
2.153609
2.715307
1.964564
1.636170
1.411663
1.752223
2.255735
1.848448
2.252426
2.107357
1.190436
1.953660
2.922449
3.502932
3.573779
2.957086
1.590672
3.646766
0.719685
2.788869
3.146436
3.622820
2.957881
2.240899
1.536418
0.847145
2.567757
2.990656
2.819211
2.570634
0.815023
3.509076
2.155525
1.963105
2.015710
2.459709
0.751565
2.805865
2.843364
3.317023
2.000899
2.056897
2.965229
2.581003
2.540332
1.939416
1.883967
1.717529
1.729387
1.639047
1.566319
2.653791
1.870085
2.255551
2.543061
1.842026
1.800200
2.494063
0.584461
2.035524
2.487016
3.461613
1.598834
2.111603
2.044699
0.933284
3.697536
1.744955
1.918241
3.386612
1.415734
3.436249
1.769394
1.178152
2.353636
3.739719
1.995266
2.651146
3.631241
1.803596
2.193307
2.561228
1.602857
3.556151
3.455716
1.872923
2.673876
1.829626
2.180256
1.172312
1.426238
3.775762
3.198062
2.041484
0.904586
2.317708
1.981751
2.089902
2.680442
2.631639
3.708917
2.541538
1.976979
2.080525
2.064060
1.604703
2.787208
3.230491
2.839016
2.781247
2.094221
1.240343
1.665093
2.810046
2.388283
1.906443
1.251498
1.849602
2.769019
3.086669
2.121306
2.126115
1.716239
1.778202
1.154089
1.103665
3.252224
3.807378
0.687329
3.305167
2.884328
2.358064
2.918023
2.848498
2.342305
2.892986
2.604161
2.058494
2.236675
2.914490
1.784992
1.115120
2.807365
1.720812
1.619306
1.811686
2.091371
2.543178
1.993678
3.754397
2.541446
3.262153
3.178862
3.872767
3.363384
0.417032
2.260398
3.209874
3.324216
1.762696
2.133936
0.606116
1.565683
1.254430
2.210164
2.779004
2.325401
2.867503
2.215221
1.844434
3.064131
1.865016
0.782747
0.480628
2.129302
3.495221
3.275873
2.409113
3.827345
3.093968
2.347707
3.419109
2.473007
2.681208
1.687908
3.213493
1.581535
1.502874
2.674560
2.171296
2.336094
2.785583
2.204700
3.579297
3.222694
1.989998
1.484865
0.321652
3.491017
2.119433
3.660766
3.097166
3.920454
2.329894
3.059853
3.916625
2.992461
2.380493
2.192348
3.528565
1.988865
3.189930
1.903381
3.503739
2.318595
2.564217
3.521670
1.994622
1.918406
2.411043
1.490021
1.756619
1.965907
2.728016
1.845035
1.945429
1.454317
2.125856
1.945581
3.175828
3.005618
0.991539
2.313692
1.980133
0.985088
1.782242
2.673927
1.523096
1.216740
3.520062
2.525457
2.596263
2.281476
1.627050
1.262277
1.866519
3.106935
1.881092
1.688995
2.483983
3.006640
2.469244
2.991979
2.530739
1.946583
3.687320
0.352249
1.044800
2.072982
1.994644
1.953821
2.266637
3.738871
1.614764
2.102108
2.680325
1.731818
1.746431
2.424985
1.576341
1.650701
1.482095
3.888268
3.861873
2.334940
2.531372
1.054789
3.165514
1.881421
2.563940
1.856787
0.922650
1.935213
1.512810
1.987434
0.816328
3.439679
2.301365
2.115290
2.573566
2.120445
1.952312
3.355413
1.823009
2.379972
1.905458
2.852512
2.422488
3.124534
2.989791
1.845116
3.048557
3.486672
2.306301
1.541321
1.425294
2.027296
3.475589
2.465073
1.862091
2.132856
3.343276
2.349424
1.941266
1.585013
2.508460
1.942511
2.196856
1.628788
3.245990
2.821520
2.608773
2.595406
1.997207
2.862746
1.228269
2.177993
1.921817
1.479957
1.880890
2.099870
1.585607
3.866070
1.932661
0.552401
1.660434
1.801854
2.079318
2.534290
1.582342
3.265506
2.647492
3.535843
3.977174
2.611720
3.560042
2.833996
3.253712
2.966468
2.206254
2.425415
1.877655
3.499714
2.696421
3.221779
2.287522
1.473105
1.619542
2.089718
1.744754
2.266049
2.390145
0.941345
1.140267
3.803457
1.186118
0.789028
3.627806
2.169112
3.018002
3.167173
1.082599
1.039850
2.145980
3.980989
3.903631
2.167819
3.207709
3.181661
2.423798
1.529026
3.339274
3.286356
4.099469
3.761027
3.868557
3.818042
3.120864
2.302140
2.277163
2.151644
2.428188
3.282826
3.266362
2.621847
4.100190
3.980307
1.519714
2.118712
1.565215
0.804911
0.779880
1.600873
0.717185
0.655280
0.735844
1.655386
1.657689
0.782591
1.626055
2.533742
1.666136
1.674361
1.571285
1.615408
1.963477
0.851740
0.899648
1.526211
0.718703
0.789317
0.763550
1.544547
2.481630
1.657621
0.724775
0.637194
2.698708
2.475518
2.634836
2.484587
2.539571
2.352302
3.126770
2.485573
2.886240
2.432666
3.087592
2.303193
2.730332
2.709174
2.619731
2.547126
2.531144
2.747502
2.613976
2.493474
2.512020
2.473085
2.522953
3.110450
3.002468
3.320408
2.797995
2.593560
2.957656
2.746963
2.509424
3.192014
4.034444
3.585910
2.493658
3.242686
3.214010
3.778341
3.448592
1.432493
3.979049
3.834386
3.479226
2.357518
1.523639
2.506584
2.313106
1.921082
2.857279
2.986149
3.061274
2.954596
2.857124
2.482666
2.489855
2.587190
2.810765
2.990044
2.688080
2.718802
3.073430
3.053369
1.416022
1.637397
2.830814
2.855337
2.241150
2.001010
1.604746
1.659901
1.982131
1.607212
1.693723
1.611723
2.217634
4.080400
3.577481
3.678946
3.941833
2.596418
1.452036
1.027513
1.096445
0.396948
2.459808
1.233473
1.560539
1.582903
3.946591
3.960529
3.214099
2.362925
3.301831
4.191221
3.241162
2.374332
3.108069
3.350284
2.470297
4.085062
2.899445
2.598355
2.386965
2.561298
2.521230
1.999231
2.441079
3.162183
2.716931
3.181124
3.851000
3.510102
2.589402
2.460171
4.041651
3.670179
3.053686
2.377250
1.863187
4.064780
3.483808
1.690418
3.771327
3.922950
2.674420
3.036133
2.763557
2.913062
3.193524
3.136802
3.087496
3.355118
3.719664
3.508912
2.933959
3.823945
3.550216
3.984117
3.687833
2.769020
0.260088
0.285213
1.631668
0.698051
0.704208
0.760325
0.769542
3.208351
0.688634
2.463062
3.817418
3.851460
2.776974
2.387024
3.037070
3.132598
2.788874
2.521397
3.211481
3.295480
3.294081
2.514100
3.123854
3.127525
4.098165
2.351274
2.939357
2.339302
2.565240
2.560291
2.550361
2.460161
1.998973
1.941035
2.580959
2.729649
2.520047
2.670558
3.719044
4.142636
3.824920
1.577240
3.991407
1.840254
2.301202
1.688956
1.826665
1.789862
2.300489
3.816385
2.618786
2.513345
1.941067
2.339007
3.881531
1.587309
2.683553
2.680624
2.672193
2.851851
2.738769
3.810195
2.691791
2.955223
2.454937
2.948199
2.823236
3.043896
3.125177
2.836765
2.863304
3.116304
2.663557
2.727287
2.633566
0.338150
4.060490
3.977923
3.722044
4.079025
3.774507
4.199758
3.928374
4.191929
1.012717
0.830277
1.304033
1.317639
0.860259
0.452607
0.729318
3.531294
3.556084
3.904240
3.833671
2.537324
2.922762
2.340588
2.378395
2.611693
2.990245
2.705680
2.455808
3.270842
3.423329
2.889453
3.219841
2.668845
2.478273
2.336183
2.325637
3.214379
3.209438
3.149150
2.528033
3.857835
4.039707
3.830829
3.456965
3.952988
2.750747
2.777506
2.900927
2.774976
2.890987
2.790235
2.966573
3.059183
3.043057
2.376520
2.825348
2.799505
2.298723
3.908003
2.727817
3.116217
3.552579
3.145645
3.534824
2.715153
3.088157
1.130747
1.749441
0.692906
2.425089
2.557752
1.479288
1.489994
1.491695
1.832745
1.503404
2.453641
2.106712
2.269413
2.325299
1.495150
1.821362
1.636979
1.794536
0.646530
1.571655
2.352544
2.087405
2.356767
1.948105
2.067552
0.684092
1.236110
0.649819
0.694871
2.042516
2.149708
2.154815
1.588038
1.610538
2.012655
1.155702
3.621154
2.627802
2.286642
2.442757
2.648537
2.396363
1.611343
1.240871
1.311822
1.652349
1.726914
1.928105
2.083474
2.200966
2.275061
2.127008
3.764662
2.349603
1.944919
1.938398
2.124134
2.863353
3.010055
2.673731
2.553502
2.896380
2.836119
2.345088
2.789494
2.995088
2.698691
2.652444
2.304159
2.262112
2.766022
2.403595
2.733554
2.352685
2.309230
1.966523
2.487843
2.548546
2.673143
2.840563
2.344198
2.324665
2.733516
2.331937
2.068939
2.316638
1.467305
3.685994
3.881720
0.877547
2.519818
1.602776
1.579586
2.313196
2.312798
2.652638
1.579855
3.421061
3.507147
3.625566
2.240293
3.068320
1.153900
1.257343
1.328534
0.737855
3.183688
3.355195
3.363272
3.165485
3.028382
3.199251
2.098843
2.157119
2.381317
2.490488
0.745184
3.855645
3.228087
3.404410
3.150251
1.958289
1.532845
2.080368
0.664513
2.788326
2.931338
3.798735
2.031939
3.376141
3.087865
3.435632
0.666286
1.641455
1.763460
2.541056
2.790909
2.864705
2.757676
2.809140
2.018066
3.058351
1.491334
1.916507
1.635887
1.092721
2.633828
2.901942
3.091515
2.180955
2.408800
2.564345
2.771206
1.816001
1.917885
2.128117
2.152838
2.353343
3.162868
1.936016
2.361001
2.269807
2.349034
3.898776
4.094726
3.384352
0.359601
2.305302
1.980417
2.407218
2.816935
2.592460
2.423967
2.792736
2.414595
2.835550
1.948912
2.461768
0.728555
0.720119
0.765689
1.163098
1.247608
1.236992
2.645825
2.399774
2.433402
2.009925
2.543249
2.314662
2.950388
2.643930
2.843333
2.184034
2.461673
2.752714
2.058265
1.862417
2.009350
1.706444
1.990942
1.611021
1.502591
1.704049
1.915672
3.327934
2.521839
1.083452
1.065154
1.173292
3.493951
2.328747
1.646299
2.238059
2.470371
2.391303
2.755009
2.362011
3.183737
3.105930
3.258987
3.400721
2.787407
3.215188
3.310378
3.052687
3.289670
2.642376
2.872584
2.804374
3.736333
3.890937
3.183641
2.966323
2.018888
2.116086
2.893388
3.411332
3.337623
2.213392
2.289254
3.486729
3.402069
3.631155
1.548907
1.624651
1.694363
1.993144
1.569389
1.233863
1.700955
1.153802
2.186168
2.106114
2.339102
3.030291
3.629415
3.782201
3.526869
2.155680
2.673882
1.659411
3.514141
2.014274
1.516123
3.537682
1.746406
1.446595
2.700435
2.479789
2.910132
2.717170
2.832547
0.903358
2.447075
2.558307
3.456582
3.621164
3.014485
3.154284
2.261012
3.207267
3.339268
3.214233
3.030178
2.504918
2.764470
2.584124
2.268723
0.288935
0.273042
0.300068
2.177441
2.368356
1.435698
3.071446
3.246456
2.829233
2.691840
2.890685
3.477433
1.950489
3.145339
3.035092
2.689552
2.482441
2.393620
2.476000
2.294214
2.630440
1.974888
1.977911
3.590957
2.865263
0.690649
3.304128
3.111280
3.494584
3.469758
3.616446
2.300894
2.968247
3.172394
2.017205
2.161878
2.522731
2.279645
1.394716
1.218357
1.529206
3.263421
0.674722
2.875137
2.663779
2.824343
2.931937
2.153768
2.038023
2.593393
1.071477
1.183659
2.068373
2.709766
2.887674
3.331413
0.901082
3.450561
3.288943
3.643590
2.612644
0.327322
1.195427
1.275052
2.412194
2.913331
1.757209
1.590871
1.702710
2.165530
1.324623
2.444732
2.583493
2.727157
2.273218
2.435750
3.617043
3.842825
2.263611
2.145619
3.681681
3.826761
2.412013
2.234496
3.528486
2.782568
2.657656
2.519104
3.756056
3.487152
2.856875
2.407719
3.810764
3.072187
3.235325
2.757604
1.782540
1.975502
3.240621
3.705319
3.967982
2.243479
0.948895
1.263945
1.354582
1.000130
1.919237
2.107115
2.414411
1.245958
1.323789
2.822230
2.960181
2.912498
2.228096
2.374535
2.031387
2.479139
2.150256
2.536517
3.078811
2.605055
3.176152
3.620648
3.200752
0.849417
0.854287
1.104881
1.317553
0.415236
0.855250
1.299884
1.301310
1.467792
1.395571
2.263745
2.705957
2.310494
1.889953
2.723413
1.483597
2.357943
2.700271
2.301053
2.006610
2.741467
1.696181
1.446344
1.295043
0.816600
1.077591
1.339099
1.862314
1.398355
1.847197
1.902363
1.525498
2.003088
1.495303
1.342272
1.716153
1.473682
2.004174
1.971478
0.830977
0.401377
1.056983
1.900468
1.862936
2.014193
1.500054
2.270885
2.262165
2.328052
2.418787
3.252489
2.594253
1.896814
1.612258
2.245793
2.222308
1.375808
1.517126
1.418647
1.310559
2.335363
1.837604
1.952219
2.688756
2.663844
2.657274
2.269018
3.094947
3.274912
2.665854
2.669726
2.631675
2.271069
2.486210
2.349811
2.669222
2.646877
2.871082
2.884708
3.192900
2.538224
2.125162
2.770207
2.481363
2.609197
2.690023
3.053860
2.665114
2.596651
2.636450
2.325828
3.211594
2.907767
