# vtk DataFile Version 2.0
Unstructured Grid Example
ASCII
DATASET UNSTRUCTURED_GRID
POINTS 2044 float
1.078499 -0.005308 -0.079382 
0.007394 0.922917 0.076266 
-1.078673 -0.004530 -0.073508 
0.009643 -0.921032 0.076803 
-0.005364 0.002761 1.000250 
1.072389 -0.100398 -0.080002 
1.054901 -0.195695 -0.075191 
1.021584 -0.289030 -0.070162 
0.981839 -0.379573 -0.058424 
0.930333 -0.464148 -0.046589 
0.872452 -0.542946 -0.033827 
0.806759 -0.616154 -0.018848 
0.732878 -0.682470 -0.004507 
0.652898 -0.739074 0.010589 
0.569505 -0.789149 0.026106 
0.482123 -0.830381 0.040713 
0.391897 -0.861540 0.052592 
0.299161 -0.889233 0.064620 
0.203076 -0.907415 0.070714 
0.107275 -0.917209 0.075095 
-0.086285 -0.919872 0.074205 
-0.184058 -0.907815 0.069026 
-0.280156 -0.891232 0.061396 
-0.375833 -0.866997 0.051627 
-0.465931 -0.834677 0.039699 
-0.555873 -0.796809 0.028778 
-0.641596 -0.747896 0.014409 
-0.723128 -0.689369 -0.001090 
-0.798303 -0.623714 -0.016472 
-0.868031 -0.551060 -0.028363 
-0.928703 -0.472769 -0.041977 
-0.980949 -0.385595 -0.054086 
-1.023275 -0.295420 -0.062628 
-1.052764 -0.200129 -0.069702 
-1.071864 -0.102751 -0.072491 
-1.073180 0.094990 -0.071056 
-1.055265 0.192889 -0.067153 
-1.025629 0.286058 -0.059082 
-0.985127 0.376322 -0.049622 
-0.934558 0.464314 -0.038081 
-0.872486 0.544524 -0.026364 
-0.805272 0.618453 -0.012109 
-0.729896 0.684573 0.002043 
-0.649193 0.741126 0.015278 
-0.562721 0.790676 0.027427 
-0.472004 0.831233 0.040777 
-0.380069 0.863307 0.051727 
-0.283687 0.888859 0.062144 
-0.187341 0.907466 0.070802 
-0.090618 0.918369 0.074019 
0.105225 0.916226 0.074291 
0.204175 0.905908 0.071216 
0.300938 0.888337 0.064808 
0.394058 0.858497 0.055685 
0.485701 0.823242 0.039406 
0.576901 0.782419 0.028165 
0.660778 0.731895 0.014878 
0.740513 0.673977 -0.000695 
0.814735 0.610244 -0.013865 
0.879270 0.536439 -0.028447 
0.936782 0.456868 -0.042364 
0.987492 0.374585 -0.053426 
1.024644 0.283806 -0.063582 
1.054911 0.190063 -0.073822 
1.074411 0.092840 -0.076497 
1.082422 -0.006069 0.021310 
1.074640 -0.005985 0.120286 
1.054332 -0.004248 0.219214 
1.023017 -0.004645 0.317492 
0.981019 -0.003106 0.412258 
0.928226 -0.002779 0.503475 
0.865718 -0.001283 0.588848 
0.796029 0.000097 0.669917 
0.716189 -0.001562 0.741425 
0.629674 -0.001159 0.810402 
0.533790 -0.000230 0.866022 
0.433845 0.000650 0.913455 
0.328684 0.000221 0.950310 
0.220110 0.001998 0.978328 
0.108388 0.002342 0.994984 
-0.004870 0.085868 0.995976 
-0.005234 0.168490 0.982774 
-0.003692 0.252524 0.963746 
-0.003376 0.333117 0.934868 
-0.002133 0.411664 0.898421 
-0.000929 0.484571 0.852624 
0.000842 0.555236 0.801924 
0.004296 0.619831 0.742288 
0.004809 0.679487 0.678456 
0.005661 0.733368 0.605844 
0.005536 0.782576 0.528012 
0.007021 0.824941 0.444890 
0.007830 0.860315 0.358142 
0.007636 0.887546 0.266843 
0.007473 0.909117 0.172297 
-0.117496 0.003550 0.995496 
-0.229484 0.002371 0.978054 
-0.338371 0.002281 0.951967 
-0.441678 0.001933 0.912909 
-0.540005 0.000442 0.865248 
-0.634898 0.000557 0.809407 
-0.720049 -0.002619 0.743625 
-0.797435 -0.003133 0.669741 
-0.869946 -0.002401 0.590630 
-0.931052 -0.002138 0.505738 
-0.983679 -0.002195 0.415801 
-1.022017 -0.003143 0.320255 
-1.052449 -0.003685 0.222926 
-1.073500 -0.005008 0.124387 
-1.081107 -0.004761 0.025214 
-0.005066 -0.080215 0.997308 
-0.004630 -0.162789 0.985434 
-0.003125 -0.244850 0.965113 
-0.002918 -0.325168 0.935053 
-0.000536 -0.404744 0.898557 
0.000099 -0.478373 0.854309 
-0.000073 -0.549521 0.804150 
0.002049 -0.616980 0.746687 
0.001740 -0.676203 0.680558 
0.003021 -0.730950 0.608864 
0.006342 -0.780773 0.530094 
0.007840 -0.824107 0.447415 
0.008033 -0.859602 0.360740 
0.009600 -0.887626 0.269152 
0.009926 -0.908734 0.174285 
0.845845 0.408193 0.430384 
0.378890 0.325551 0.865171 
0.367035 0.772304 0.421170 
0.979787 0.298482 0.264061 
1.019904 0.250033 0.176799 
1.045949 0.192690 0.146594 
1.059018 0.185011 0.062051 
0.560453 0.720882 0.347507 
0.582356 0.279945 0.781142 
0.310874 0.596842 0.706286 
0.781420 0.580010 0.278782 
0.805020 0.255001 0.595105 
0.809234 0.587489 0.176982 
0.850369 0.163412 0.583248 
0.232822 0.466131 0.834796 
0.231881 0.724671 0.579932 
0.905236 0.473189 0.178636 
0.923058 0.186452 0.470168 
0.151144 0.364697 0.910770 
0.151423 0.802255 0.477316 
0.442380 0.671202 0.548755 
0.449164 0.453437 0.763770 
0.447737 0.818109 0.201890 
0.477782 0.134325 0.880822 
0.960285 0.406952 0.110059 
0.985934 0.161569 0.360736 
0.099946 0.299578 0.941987 
0.103144 0.836880 0.409490 
0.297758 0.873797 0.176663 
0.320156 0.096614 0.947674 
1.009426 0.330997 0.030845 
1.031643 0.084866 0.284869 
0.624542 0.520096 0.585185 
0.093990 0.243885 0.962329 
0.096474 0.858391 0.347899 
0.237396 0.889206 0.153403 
0.253404 0.074163 0.966588 
1.061461 0.099917 0.159906 
1.037365 0.255667 0.005760 
1.075266 0.089079 0.062812 
0.723506 0.380101 0.609367 
0.711650 0.568830 0.425890 
0.573615 0.645760 0.474886 
0.586291 0.404350 0.714307 
0.831245 0.503726 0.324017 
0.839844 0.309658 0.516894 
0.776856 0.453198 0.485162 
0.427345 0.569085 0.680237 
0.370206 0.161304 0.921193 
0.347606 0.842787 0.243813 
0.419149 0.796068 0.321075 
0.440125 0.238763 0.874970 
0.372447 0.643015 0.635146 
0.372080 0.527151 0.744665 
0.510515 0.693652 0.456642 
0.523814 0.375477 0.769490 
0.303843 0.405531 0.851197 
0.299165 0.747659 0.515063 
0.509735 0.769110 0.283202 
0.535667 0.213482 0.831339 
0.339398 0.464987 0.803047 
0.337441 0.700371 0.574732 
0.255609 0.352438 0.892505 
0.250076 0.787226 0.460978 
0.924046 0.401679 0.272590 
0.951156 0.248079 0.378234 
0.483485 0.304042 0.829081 
0.465696 0.753802 0.388321 
0.406332 0.728281 0.484113 
0.417028 0.387067 0.819869 
0.115374 0.499063 0.835210 
0.118242 0.716961 0.619085 
0.234397 0.666732 0.655587 
0.233817 0.540469 0.780638 
0.085100 0.425823 0.886069 
0.087663 0.770985 0.544059 
0.719490 0.267023 0.678290 
0.694412 0.643070 0.308339 
0.522764 0.802301 0.109645 
0.563334 0.063803 0.845728 
0.198048 0.823323 0.414467 
0.200734 0.305366 0.925682 
0.235537 0.869369 0.254949 
0.247834 0.162535 0.956372 
0.478229 0.601828 0.612042 
0.469454 0.505650 0.715071 
0.296318 0.256398 0.919581 
0.283760 0.826826 0.354754 
1.022389 0.186040 0.247343 
0.995267 0.329810 0.142376 
0.192044 0.422961 0.873408 
0.188986 0.759729 0.536339 
0.442065 0.835424 0.106525 
0.481329 0.050010 0.891464 
0.371061 0.855328 0.142817 
0.403698 0.073941 0.922177 
0.065566 0.367595 0.917123 
0.070661 0.804022 0.482064 
0.122438 0.880939 0.268738 
0.121159 0.171052 0.976128 
0.176713 0.239212 0.952309 
0.172262 0.853145 0.343982 
0.678404 0.445470 0.606296 
0.672057 0.552645 0.499749 
0.602127 0.589264 0.524321 
0.611083 0.457199 0.657851 
0.811157 0.382771 0.506682 
0.813159 0.478535 0.402917 
0.709408 0.486237 0.534287 
0.595948 0.732499 0.252739 
0.627275 0.200629 0.779582 
0.881576 0.464946 0.275059 
0.895316 0.278533 0.455147 
0.742409 0.518018 0.455624 
0.749194 0.415428 0.555940 
0.860961 0.343899 0.460582 
0.782051 0.343952 0.572104 
0.768249 0.545874 0.374729 
0.528068 0.632403 0.538934 
0.535289 0.454918 0.712336 
0.914959 0.343409 0.369208 
0.871886 0.435986 0.348531 
0.989779 0.220257 0.316369 
1.032710 0.250614 0.090432 
0.618817 0.664240 0.389800 
0.636736 0.329787 0.718404 
0.722497 0.326811 0.646841 
0.702864 0.607775 0.371260 
0.558107 0.573617 0.585813 
0.531714 0.528366 0.655163 
0.196306 0.610479 0.728069 
0.649127 0.607254 0.450724 
0.662766 0.392679 0.661321 
0.109143 0.582857 0.773433 
0.111787 0.651173 0.705250 
0.733545 0.641317 0.223981 
0.765173 0.195808 0.664484 
1.079772 0.075221 -0.013039 
0.600986 0.133209 0.812732 
0.562968 0.768987 0.183312 
0.832036 0.075247 0.623630 
0.786847 0.629091 0.078751 
0.871069 0.237900 0.522091 
0.845123 0.525405 0.235559 
0.855933 0.556534 0.088792 
0.896684 0.084736 0.541990 
0.153518 0.079708 0.985013 
0.148411 0.902424 0.163454 
1.000218 0.068829 0.368589 
0.963681 0.414264 0.027718 
0.919970 0.479706 0.055867 
0.957258 0.084191 0.447231 
0.955159 0.387146 0.195300 
0.681541 0.232371 0.727945 
0.651605 0.685930 0.277036 
0.068546 0.912508 0.135483 
0.064716 0.053923 0.997041 
0.066023 0.112135 0.992063 
0.070539 0.900982 0.202240 
0.707521 0.694292 0.082686 
0.753357 0.065174 0.704266 
0.618493 0.752428 0.098468 
0.664013 0.064618 0.779730 
0.756245 0.645534 0.139306 
0.794206 0.123249 0.654027 
0.663345 0.707811 0.180125 
0.702945 0.144713 0.739012 
0.856210 0.537890 0.170919 
-0.501377 0.407590 0.770976 
-0.389534 0.783989 0.383527 
-0.945312 0.351917 0.294633 
-0.379560 0.280635 0.888228 
-0.289913 0.243346 0.927616 
-0.247958 0.179777 0.955625 
-0.189020 0.117634 0.979070 
-0.341326 0.709296 0.557651 
-0.879274 0.295454 0.481597 
-0.722884 0.637698 0.277687 
-0.317704 0.553563 0.746078 
-0.708308 0.256836 0.698095 
-0.203458 0.545558 0.784148 
-0.724284 0.168380 0.717420 
-0.555806 0.761975 0.237746 
-0.878920 0.510506 0.181734 
-0.233491 0.453026 0.843353 
-0.566395 0.193886 0.827688 
-0.423560 0.832546 0.183718 
-0.965184 0.405393 0.090692 
-0.818737 0.481185 0.380023 
-0.551833 0.691424 0.426021 
-0.155195 0.797767 0.478141 
-0.989483 0.145306 0.368103 
-0.183954 0.384402 0.895104 
-0.484859 0.142572 0.883412 
-0.345467 0.865317 0.147656 
-1.003408 0.334731 0.036984 
-0.108882 0.858370 0.348574 
-1.047527 0.106412 0.216933 
-0.404783 0.082144 0.924045 
-0.106875 0.308127 0.939685 
-0.639346 0.530540 0.564166 
-0.277616 0.880125 0.147928 
-1.032304 0.272240 0.025275 
-0.081107 0.878575 0.293639 
-1.063380 0.079250 0.156142 
-0.270978 0.095897 0.964219 
-0.126889 0.196377 0.972476 
-0.184713 0.053881 0.984865 
-0.469166 0.558652 0.665434 
-0.699376 0.386764 0.636160 
-0.491277 0.648465 0.545302 
-0.791716 0.420251 0.502476 
-0.618096 0.306881 0.748393 
-0.386468 0.485845 0.772462 
-0.559099 0.447482 0.703983 
-0.695567 0.609123 0.385696 
-0.187510 0.834845 0.388951 
-1.019803 0.176827 0.268476 
-0.282250 0.789522 0.440667 
-0.968992 0.256104 0.340937 
[...]
POINT_DATA 2044
SCALARS u float 1
LOOKUP_TABLE default
4.134588
4.020686
3.986565
4.090630
0.223345
4.113823
3.905728
3.529533
3.046565
2.499931
2.020518
1.581165
1.329426
1.482617
1.910321
2.461920
3.036374
3.477911
3.781152
4.019382
3.935210
3.738132
3.347763
2.853000
2.291752
1.666601
1.103760
0.885118
1.184407
1.719908
2.325705
2.910656
3.380152
3.711274
3.907482
3.904724
3.710697
3.355316
2.925516
2.417609
1.849443
1.404534
1.187996
1.417894
1.837591
2.406645
2.948225
3.418695
3.781381
3.955698
4.019439
3.837455
3.513361
3.204779
2.667789
2.236263
1.889199
1.740667
1.855711
2.176055
2.619868
3.087642
3.444211
3.874507
4.078561
4.303151
4.445350
4.462885
4.392648
4.270665
4.066468
3.821366
3.565622
3.244159
2.850284
2.381917
1.931674
1.441547
0.932952
0.393378
0.485076
1.005591
1.425945
1.882292
2.293796
2.740820
3.117662
3.484668
3.828636
4.083243
4.234919
4.331168
4.377439
4.361493
4.214771
0.732559
1.279345
1.790324
2.220960
2.611964
3.046034
3.351349
3.618010
3.935474
4.120103
4.290299
4.304294
4.325619
4.317290
4.169844
0.689189
1.219315
1.711658
2.170134
2.541402
2.978119
3.344347
3.642200
3.968078
4.210339
4.332538
4.409214
4.455037
4.416905
4.280507
3.348658
2.332007
3.941525
3.857391
3.992292
4.231911
4.184774
3.206231
2.807124
3.438702
2.820196
3.473615
2.589887
3.711866
2.715153
3.975544
3.026218
4.006029
2.090536
4.217229
3.592548
2.942993
3.393298
2.181503
3.200682
4.187022
1.708648
4.358675
3.802326
1.515269
3.498391
4.436002
3.225672
1.381472
4.434719
3.950660
1.144088
4.448176
3.754729
4.349146
3.253966
3.089458
3.308545
3.001690
3.092952
3.549809
3.281708
3.390123
1.794987
3.833056
3.704461
2.214922
3.539467
3.196492
3.482440
2.839636
2.584218
3.989282
3.327609
2.516645
2.924827
3.767693
2.246764
4.161459
3.455039
3.940093
2.552080
3.542237
3.746792
2.692145
2.865237
3.992942
3.769902
3.114289
2.428259
4.178958
3.201850
2.878290
2.756424
2.486306
4.234955
1.900468
4.110981
1.408677
3.420224
3.182680
1.837605
4.098595
4.249402
3.605779
2.465992
4.140424
3.175948
2.163573
3.557998
1.834170
2.082712
4.339291
4.345051
1.073606
1.580303
4.313068
3.175797
3.174749
3.250915
3.126009
3.396829
3.215122
3.236414
2.908137
2.855635
3.204642
3.734985
3.164648
3.284301
3.502621
3.368202
3.053144
3.395452
3.066119
3.621593
3.331625
4.126839
3.889777
3.120388
3.004515
3.259727
2.990851
3.295982
3.260583
3.477932
3.147999
3.170478
3.292662
3.642705
2.679865
3.347959
4.245190
2.712904
2.799418
3.656248
2.157000
3.772278
2.854760
2.415287
3.941033
0.712582
4.117099
4.369125
2.991258
2.706461
4.181186
3.414137
3.067945
2.876059
4.164883
0.295958
0.643037
4.273093
2.143976
3.335949
2.380214
2.960820
2.360304
3.458532
2.562416
3.148900
2.735589
2.793434
3.427304
3.531202
2.326337
1.899262
1.570542
1.202585
3.466621
3.629766
2.228891
3.121182
3.282425
3.067257
3.348520
2.495390
2.586141
2.688948
2.778521
3.006544
3.029625
2.866118
2.782834
4.049807
4.140853
2.248023
2.453785
3.292208
3.274177
4.255481
4.277598
2.058835
1.806315
2.847185
3.652217
3.590005
4.253286
4.277055
1.480981
1.250330
1.067054
2.996944
3.133231
2.981932
3.141494
2.994586
2.911203
2.920794
2.547206
4.054801
4.124101
3.805787
3.855195
2.460818
2.527789
3.095284
3.276467
2.924180
3.007213
3.748199
3.871651
2.713020
2.630583
3.209173
3.179090
2.426806
2.624074
3.611306
3.519681
3.312649
3.110701
2.101205
2.036496
2.199174
2.155250
2.481886
2.507064
3.423961
3.254724
4.171935
4.246031
3.390265
3.385021
4.035122
4.036035
2.681120
2.663613
3.772799
3.727479
2.037993
2.778506
2.708860
4.209790
4.304038
4.228009
4.291735
2.864744
2.873742
3.927462
3.890489
3.697683
3.710525
2.892116
2.992767
2.962970
2.851580
2.864746
2.898638
2.931059
3.648639
3.870259
2.836668
2.709829
3.010495
2.950557
2.772230
3.030088
3.068285
1.991377
2.818022
2.972160
2.620523
2.790799
1.618271
3.227182
3.374096
3.142106
3.281025
2.848514
2.736820
1.920497
3.127975
3.010924
1.688890
1.667909
3.536386
3.392528
4.075576
3.932800
3.290197
3.445643
2.886085
3.084960
3.123931
2.951649
4.154936
4.149622
2.440578
2.152386
2.515487
2.867661
3.630815
3.433965
4.062498
4.117845
3.966364
4.034155
2.427326
3.598447
3.797802
3.908173
4.088651
3.247377
3.358329
3.582028
3.849052
3.675473
0.862308
0.537467
2.794785
3.499013
3.358053
2.374459
1.975617
1.651674
3.588593
3.540951
2.038610
3.179076
3.209925
3.207757
3.340251
2.431699
2.345082
2.776050
2.772610
3.005511
2.932621
2.707548
2.841749
4.146385
4.211522
2.471358
2.433030
3.280414
3.213432
4.232089
4.316194
2.055214
2.129414
2.751089
3.617911
3.580963
4.247630
4.339882
1.722266
1.754248
2.999359
2.974129
3.030040
2.971553
2.889861
2.976027
2.806703
2.434153
4.154622
4.141410
3.901717
3.829367
2.443046
2.307828
3.152638
3.102344
2.929789
2.792574
3.882343
3.893659
2.509950
2.676705
3.117930
3.229155
2.547555
2.646360
3.508307
3.592816
3.004274
3.156953
1.854318
1.943079
1.906539
1.999908
2.439202
2.337146
3.398453
3.361548
4.192608
4.215248
3.422845
3.326983
4.128865
4.146095
2.592803
2.646968
3.721203
3.829021
2.099416
2.096314
2.582733
2.651370
4.258190
4.338376
4.235964
4.347778
2.759473
2.849749
3.888309
3.905818
3.692210
3.724256
2.836869
2.835565
2.806093
2.853642
2.841821
2.847941
2.804704
3.868117
3.779500
2.835132
2.789496
2.865079
2.866520
2.857919
2.977953
2.986716
2.845163
2.793680
2.627716
2.710219
3.307499
3.295309
3.161094
3.170150
2.378050
2.667744
2.646375
1.641236
2.997198
3.025308
1.376254
1.437995
3.470690
3.504518
4.029142
4.099810
3.432832
3.439631
2.948572
3.067845
3.103965
3.090524
4.182526
4.250779
2.357457
2.452682
2.797093
2.811501
3.608504
3.593031
4.175458
4.093217
3.988902
3.993479
2.474860
3.761149
3.824725
4.041400
4.001217
3.193114
3.550601
3.545891
3.818142
3.834559
1.353149
1.343417
0.946621
1.336569
3.192879
3.906180
2.443740
3.792477
4.038179
4.188604
4.264406
4.274561
3.009133
2.794098
3.515238
2.539204
3.510088
2.266380
3.645965
4.075891
2.912123
2.743852
3.941546
4.397938
2.363854
2.949631
3.573669
3.200300
2.227483
4.224251
3.191807
4.431429
1.972462
3.737774
1.527283
3.389752
4.406798
3.073091
4.464147
1.651034
3.877043
1.193352
3.890991
4.400859
2.855663
3.126225
3.179206
2.914318
3.467020
2.843402
3.056372
3.406015
3.673484
1.907321
3.589716
2.312031
3.647263
3.205699
3.375406
2.793278
4.006877
2.673343
3.111581
2.608351
2.948251
3.867807
2.394299
4.175236
3.245953
3.744132
2.567322
3.519109
2.680118
3.751437
3.073352
4.146481
3.227181
3.863828
4.386800
2.674729
3.184759
2.518939
2.547495
2.523482
4.306191
2.117503
4.121895
1.496406
3.147016
3.458855
2.039560
4.090162
4.209089
3.697659
2.695268
4.259048
2.973133
2.132487
3.362902
1.849330
2.331497
4.416164
4.335941
1.282339
1.714196
4.306647
2.960812
3.046554
3.031513
3.145894
2.965203
3.273991
3.030694
2.614794
2.908800
3.649356
2.958108
3.118728
2.928089
3.048282
2.811015
3.241092
3.309792
2.988874
3.368129
3.451182
2.912088
2.957327
2.749355
3.198380
3.469320
3.096137
3.289346
3.692931
3.082974
2.956769
3.497844
3.874631
3.371854
2.242115
2.756795
2.558640
1.828768
3.753423
2.681761
3.717812
3.928510
2.157860
4.153343
0.844858
4.305374
2.982664
2.589845
4.165988
3.073443
2.508253
0.476222
4.145761
0.863645
4.323796
3.998701
1.756943
3.433568
2.047370
2.996894
3.957216
1.956190
3.525453
3.167498
2.193219
4.015184
4.438384
0.145226
2.287347
2.283160
2.233387
2.163455
1.933347
2.102081
2.054379
1.848825
2.983463
2.329397
1.358592
1.347170
1.205955
3.160210
2.241937
1.300059
2.909369
3.117582
2.184635
2.308705
1.160908
3.210891
3.221361
3.175625
3.270724
2.437249
1.882283
1.614337
2.138948
2.850842
2.141352
2.153609
2.715307
1.964564
1.636170
1.411663
1.752223
2.255735
1.848448
2.252426
2.107357
1.190436
1.953660
2.922449
3.502932
3.573779
2.957086
1.590672
3.646766
0.719685
2.788869
3.146436
3.622820
2.957881
2.240899
1.536418
0.847145
2.567757
2.990656
2.819211
2.570634
0.815023
3.509076
2.155525
1.963105
2.015710
2.459709
0.751565
2.805865
2.843364
3.317023
2.000899
2.056897
2.965229
2.581003
2.540332
1.939416
1.883967
1.717529
1.729387
1.639047
1.566319
2.653791
1.870085
2.255551
2.543061
1.842026
1.800200
2.494063
0.584461
2.035524
2.487016
3.461613
1.598834
2.111603
2.044699
0.933284
3.697536
1.744955
1.918241
3.386612
1.415734
3.436249
1.769394
1.178152
2.353636
3.739719
1.995266
2.651146
3.631241
1.803596
2.193307
2.561228
1.602857
3.556151
3.455716
1.872923
2.673876
1.829626
2.180256
1.172312
1.426238
3.775762
3.198062
2.041484
0.904586
2.317708
1.981751
2.089902
2.680442
2.631639
3.708917
2.541538
1.976979
2.080525
2.064060
1.604703
2.787208
3.230491
2.839016
2.781247
2.094221
1.240343
1.665093
2.810046
2.388283
1.906443
1.251498
1.849602
2.769019
3.086669
2.121306
2.126115
1.716239
1.778202
1.154089
1.103665
3.252224
3.807378
0.687329
3.305167
2.884328
2.358064
2.918023
2.848498
2.342305
2.892986
2.604161
2.058494
2.236675
2.914490
1.784992
1.115120
2.807365
1.720812
1.619306
1.811686
2.091371
2.543178
1.993678
3.754397
2.541446
3.262153
3.178862
3.872767
3.363384
0.417032
2.260398
3.209874
3.324216
1.762696
2.133936
0.606116
1.565683
1.254430
2.210164
2.779004
2.325401
2.867503
2.215221
1.844434
3.064131
1.865016
0.782747
0.480628
2.129302
3.495221
3.275873
2.409113
3.827345
3.093968
2.347707
3.419109
2.473007
2.681208
1.687908
3.213493
1.581535
1.502874
2.674560
2.171296
2.336094
2.785583
2.204700
3.579297
3.222694
1.989998
1.484865
0.321652
3.491017
2.119433
3.660766
3.097166
3.920454
2.329894
3.059853
3.916625
2.992461
2.380493
2.192348
3.528565
1.988865
3.189930
1.903381
3.503739
2.318595
2.564217
3.521670
1.994622
1.918406
2.411043
1.490021
1.756619
1.965907
2.728016
1.845035
1.945429
1.454317
2.125856
1.945581
3.175828
3.005618
0.991539
2.313692
1.980133
0.985088
1.782242
2.673927
1.523096
1.216740
3.520062
2.525457
2.596263
2.281476
1.627050
1.262277
1.866519
3.106935
1.881092
1.688995
2.483983
3.006640
2.469244
2.991979
2.530739
1.946583
3.687320
0.352249
1.044800
2.072982
1.994644
1.953821
2.266637
3.738871
1.614764
2.102108
2.680325
1.731818
1.746431
2.424985
1.576341
1.650701
1.482095
3.888268
3.861873
2.334940
2.531372
1.054789
3.165514
1.881421
2.563940
1.856787
0.922650
1.935213
1.512810
1.987434
0.816328
3.439679
2.301365
2.115290
2.573566
2.120445
1.952312
3.355413
1.823009
2.379972
1.905458
2.852512
2.422488
3.124534
2.989791
1.845116
3.048557
3.486672
2.306301
1.541321
1.425294
2.027296
3.475589
2.465073
1.862091
2.132856
3.343276
2.349424
1.941266
1.585013
2.508460
1.942511
2.196856
1.628788
3.245990
2.821520
2.608773
2.595406
1.997207
2.862746
1.228269
2.177993
1.921817
1.479957
1.880890
2.099870
1.585607
3.866070
1.932661
0.552401
1.660434
1.801854
2.079318
2.534290
1.582342
3.265506
2.647492
3.535843
3.977174
2.611720
3.560042
2.833996
3.253712
2.966468
2.206254
2.425415
1.877655
3.499714
2.696421
3.221779
2.287522
1.473105
1.619542
2.089718
1.744754
2.266049
2.390145
0.941345
1.140267
3.803457
1.186118
0.789028
3.627806
2.169112
3.018002
3.167173
1.082599
1.039850
2.145980
3.980989
3.903631
2.167819
3.207709
3.181661
2.423798
1.529026
3.339274
3.286356
4.099469
3.761027
3.868557
3.818042
3.120864
2.302140
2.277163
2.151644
2.428188
3.282826
3.266362
2.621847
4.100190
3.980307
1.519714
2.118712
1.565215
0.804911
0.779880
1.600873
0.717185
0.655280
0.735844
1.655386
1.657689
0.782591
1.626055
2.533742
1.666136
1.674361
1.571285
1.615408
1.963477
0.851740
0.899648
1.526211
0.718703
0.789317
0.763550
1.544547
2.481630
1.657621
0.724775
0.637194
2.698708
2.475518
2.634836
2.484587
2.539571
2.352302
3.126770
2.485573
2.886240
2.432666
3.087592
2.303193
2.730332
2.709174
2.619731
2.547126
2.531144
2.747502
2.613976
2.493474
2.512020
2.473085
2.522953
3.110450
3.002468
3.320408
2.797995
2.593560
2.957656
2.746963
2.509424
3.192014
4.034444
3.585910
2.493658
3.242686
3.214010
3.778341
3.448592
1.432493
3.979049
3.834386
3.479226
2.357518
1.523639
2.506584
2.313106
1.921082
2.857279
2.986149
3.061274
2.954596
2.857124
2.482666
2.489855
2.587190
2.810765
2.990044
2.688080
2.718802
3.073430
3.053369
1.416022
1.637397
2.830814
2.855337
2.241150
2.001010
1.604746
1.659901
1.982131
1.607212
1.693723
1.611723
2.217634
4.080400
3.577481
3.678946
3.941833
2.596418
1.452036
1.027513
1.096445
0.396948
2.459808
1.233473
1.560539
1.582903
3.946591
3.960529
3.214099
2.362925
3.301831
4.191221
3.241162
2.374332
3.108069
3.350284
2.470297
4.085062
2.899445
2.598355
2.386965
2.561298
2.521230
1.999231
2.441079
3.162183
2.716931
3.181124
3.851000
3.510102
2.589402
2.460171
4.041651
3.670179
3.053686
2.377250
1.863187
4.064780
3.483808
1.690418
3.771327
3.922950
2.674420
3.036133
2.763557
2.913062
3.193524
3.136802
3.087496
3.355118
3.719664
3.508912
2.933959
3.823945
3.550216
3.984117
3.687833
2.769020
0.260088
0.285213
1.631668
0.698051
0.704208
0.760325
0.769542
3.208351
0.688634
2.463062
3.817418
3.851460
2.776974
2.387024
3.037070
3.132598
2.788874
2.521397
3.211481
3.295480
3.294081
2.514100
3.123854
3.127525
4.098165
2.351274
2.939357
2.339302
2.565240
2.560291
2.550361
2.460161
1.998973
1.941035
2.580959
2.729649
2.520047
2.670558
3.719044
4.142636
3.824920
1.577240
3.991407
1.840254
2.301202
1.688956
1.826665
1.789862
2.300489
3.816385
2.618786
2.513345
1.941067
2.339007
3.881531
1.587309
2.683553
2.680624
2.672193
2.851851
2.738769
3.810195
2.691791
2.955223
2.454937
2.948199
2.823236
3.043896
3.125177
2.836765
2.863304
3.116304
2.663557
2.727287
2.633566
0.338150
4.060490
3.977923
3.722044
4.079025
3.774507
4.199758
3.928374
4.191929
1.012717
0.830277
1.304033
1.317639
0.860259
0.452607
0.729318
3.531294
3.556084
3.904240
3.833671
2.537324
2.922762
2.340588
2.378395
2.611693
2.990245
2.705680
2.455808
3.270842
3.423329
2.889453
3.219841
2.668845
2.478273
2.336183
2.325637
3.214379
3.209438
3.149150
2.528033
3.857835
4.039707
3.830829
3.456965
3.952988
2.750747
2.777506
2.900927
2.774976
2.890987
2.790235
2.966573
3.059183
3.043057
2.376520
2.825348
2.799505
2.298723
3.908003
2.727817
3.116217
3.552579
3.145645
3.534824
2.715153
3.088157
1.130747
1.749441
0.692906
2.425089
2.557752
1.479288
1.489994
1.491695
1.832745
1.503404
2.453641
2.106712
2.269413
2.325299
1.495150
1.821362
1.636979
1.794536
0.646530
1.571655
2.352544
2.087405
2.356767
1.948105
2.067552
0.684092
1.236110
0.649819
0.694871
2.042516
2.149708
2.154815
1.588038
1.610538
2.012655
1.155702
3.621154
2.627802
2.286642
2.442757
2.648537
2.396363
1.611343
1.240871
1.311822
1.652349
1.726914
1.928105
2.083474
2.200966
2.275061
2.127008
3.764662
2.349603
1.944919
1.938398
2.124134
2.863353
3.010055
2.673731
2.553502
2.896380
2.836119
2.345088
2.789494
2.995088
2.698691
2.652444
2.304159
2.262112
2.766022
2.403595
2.733554
2.352685
2.309230
1.966523
2.487843
2.548546
2.673143
2.840563
2.344198
2.324665
2.733516
2.331937
2.068939
2.316638
1.467305
3.685994
3.881720
0.877547
2.519818
1.602776
1.579586
2.313196
2.312798
2.652638
1.579855
3.421061
3.507147
3.625566
2.240293
3.068320
1.153900
1.257343
1.328534
0.737855
3.183688
3.355195
3.363272
3.165485
3.028382
3.199251
2.098843
2.157119
2.381317
2.490488
0.745184
3.855645
3.228087
3.404410
3.150251
1.958289
1.532845
2.080368
0.664513
2.788326
2.931338
3.798735
2.031939
3.376141
3.087865
3.435632
0.666286
1.641455
1.763460
2.541056
2.790909
2.864705
2.757676
2.809140
2.018066
3.058351
1.491334
1.916507
1.635887
1.092721
2.633828
2.901942
3.091515
2.180955
2.408800
2.564345
2.771206
1.816001
1.917885
2.128117
2.152838
2.353343
3.162868
1.936016
2.361001
2.269807
2.349034
3.898776
4.094726
3.384352
0.359601
2.305302
1.980417
2.407218
2.816935
2.592460
2.423967
2.792736
2.414595
2.835550
1.948912
2.461768
0.728555
0.720119
0.765689
1.163098
1.247608
1.236992
2.645825
2.399774
2.433402
2.009925
2.543249
2.314662
2.950388
2.643930
2.843333
2.184034
2.461673
2.752714
2.058265
1.862417
2.009350
1.706444
1.990942
1.611021
1.502591
1.704049
1.915672
3.327934
2.521839
1.083452
1.065154
1.173292
3.493951
2.328747
1.646299
2.238059
2.470371
2.391303
2.755009
2.362011
3.183737
3.105930
3.258987
3.400721
2.787407
3.215188
3.310378
3.052687
3.289670
2.642376
2.872584
2.804374
3.736333
3.890937
3.183641
2.966323
2.018888
2.116086
2.893388
3.411332
3.337623
2.213392
2.289254
3.486729
3.402069
3.631155
1.548907
1.624651
1.694363
1.993144
1.569389
1.233863
1.700955
1.153802
2.186168
2.106114
2.339102
3.030291
3.629415
3.782201
3.526869
2.155680
2.673882
1.659411
3.514141
2.014274
1.516123
3.537682
1.746406
1.446595
2.700435
2.479789
2.910132
2.717170
2.832547
0.903358
2.447075
2.558307
3.456582
3.621164
3.014485
3.154284
2.261012
3.207267
3.339268
3.214233
3.030178
2.504918
2.764470
2.584124
2.268723
0.288935
0.273042
0.300068
2.177441
2.368356
1.435698
3.071446
3.246456
2.829233
2.691840
2.890685
3.477433
1.950489
3.145339
3.035092
2.689552
2.482441
2.393620
2.476000
2.294214
2.630440
1.974888
1.977911
3.590957
2.865263
0.690649
3.304128
3.111280
3.494584
3.469758
3.616446
2.300894
2.968247
3.172394
2.017205
2.161878
2.522731
2.279645
1.394716
1.218357
1.529206
3.263421
0.674722
2.875137
2.663779
2.824343
2.931937
2.153768
2.038023
2.593393
1.071477
1.183659
2.068373
2.709766
2.887674
3.331413
0.901082
3.450561
3.288943
3.643590
2.612644
0.327322
1.195427
1.275052
2.412194
2.913331
1.757209
1.590871
1.702710
2.165530
1.324623
2.444732
2.583493
2.727157
2.273218
2.435750
3.617043
3.842825
2.263611
2.145619
3.681681
3.826761
2.412013
2.234496
3.528486
2.782568
2.657656
2.519104
3.756056
3.487152
2.856875
2.407719
3.810764
3.072187
3.235325
2.757604
1.782540
1.975502
3.240621
3.705319
3.967982
2.243479
0.948895
1.263945
1.354582
1.000130
1.919237
2.107115
2.414411
1.245958
1.323789
2.822230
2.960181
2.912498
2.228096
2.374535
2.031387
2.479139
2.150256
2.536517
3.078811
2.605055
3.176152
3.620648
3.200752
0.849417
0.854287
1.104881
1.317553
0.415236
0.855250
1.299884
1.301310
1.467792
1.395571
2.263745
2.705957
2.310494
1.889953
2.723413
1.483597
2.357943
2.700271
2.301053
2.006610
2.741467
1.696181
1.446344
1.295043
0.816600
1.077591
1.339099
1.862314
1.398355
1.847197
1.902363
1.525498
2.003088
1.495303
1.342272
1.716153
1.473682
2.004174
1.971478
0.830977
0.401377
1.056983
1.900468
1.862936
2.014193
1.500054
2.270885
2.262165
2.328052
2.418787
3.252489
2.594253
1.896814
1.612258
2.245793
2.222308
1.375808
1.517126
1.418647
1.310559
2.335363
1.837604
1.952219
2.688756
2.663844
2.657274
2.269018
3.094947
3.274912
2.665854
2.669726
2.631675
2.271069
2.486210
2.349811
2.669222
2.646877
2.871082
2.884708
3.192900
2.538224
2.125162
2.770207
2.481363
2.609197
2.690023
3.053860
2.665114
2.596651
2.636450
2.325828
3.211594
2.907767
