# vtk DataFile Version 2.0
Unstructured Grid Example
ASCII
DATASET UNSTRUCTURED_GRID
POINTS 2044 float
1.027478 -0.001858 -0.027788 
0.002588 0.973017 0.026697 
-1.027539 -0.001586 -0.025731 
0.003376 -0.972357 0.026885 
-0.001878 0.000966 1.000087 
1.022210 -0.098850 -0.028005 
1.006729 -0.195302 -0.026320 
0.979569 -0.289846 -0.024560 
0.944168 -0.381595 -0.020451 
0.898868 -0.468859 -0.016309 
0.845815 -0.551151 -0.011841 
0.784824 -0.628009 -0.006598 
0.716128 -0.698483 -0.001578 
0.640871 -0.761131 0.003707 
0.560448 -0.816655 0.009138 
0.475152 -0.863880 0.014252 
0.385909 -0.902058 0.018410 
0.293392 -0.933239 0.022620 
0.197886 -0.955102 0.024753 
0.101258 -0.967889 0.026287 
-0.093910 -0.968822 0.025976 
-0.191228 -0.955242 0.024163 
-0.286739 -0.933939 0.021492 
-0.380285 -0.903968 0.018072 
-0.469483 -0.865383 0.013897 
-0.555676 -0.819337 0.010074 
-0.636914 -0.764219 0.005044 
-0.712715 -0.700898 -0.000382 
-0.781864 -0.630655 -0.005766 
-0.844268 -0.553991 -0.009928 
-0.898297 -0.471877 -0.014694 
-0.943857 -0.383703 -0.018933 
-0.980161 -0.292082 -0.021923 
-1.005982 -0.196854 -0.024399 
-1.022026 -0.099674 -0.025375 
-1.022487 0.096958 -0.024873 
-1.006857 0.194320 -0.023507 
-0.980985 0.288805 -0.020682 
-0.945319 0.380456 -0.017370 
-0.900347 0.468917 -0.013330 
-0.845827 0.551703 -0.009229 
-0.784303 0.628813 -0.004239 
-0.715084 0.699219 0.000715 
-0.639574 0.761849 0.005348 
-0.558073 0.817190 0.009601 
-0.471609 0.864178 0.014274 
-0.381768 0.902676 0.018107 
-0.287975 0.933109 0.021753 
-0.192378 0.955120 0.024784 
-0.095427 0.968295 0.025910 
0.100540 0.967545 0.026005 
0.198270 0.954575 0.024929 
0.294014 0.932926 0.022686 
0.386665 0.900992 0.019492 
0.476404 0.861381 0.013794 
0.563037 0.814299 0.009859 
0.643629 0.758618 0.005208 
0.718801 0.695510 -0.000243 
0.787616 0.625940 -0.004853 
0.848202 0.548873 -0.009958 
0.901125 0.466311 -0.014830 
0.946147 0.379849 -0.018702 
0.980640 0.288017 -0.022257 
1.006733 0.193330 -0.025841 
1.022918 0.096205 -0.026778 
1.025722 -0.002124 0.071166 
1.013639 -0.002095 0.168905 
0.991032 -0.001487 0.265406 
0.958583 -0.001626 0.359863 
0.916611 -0.001087 0.450695 
0.865339 -0.000973 0.537334 
0.805463 -0.000449 0.618450 
0.738234 0.000034 0.694088 
0.663026 -0.000547 0.761954 
0.581510 -0.000406 0.824095 
0.493238 -0.000081 0.876356 
0.400593 0.000227 0.920231 
0.303726 0.000077 0.954619 
0.203849 0.000700 0.979925 
0.101647 0.000820 0.995114 
-0.001705 0.093764 0.995462 
-0.001832 0.185779 0.981482 
-0.001292 0.277067 0.959323 
-0.001182 0.365333 0.927726 
-0.000747 0.450487 0.887697 
-0.000325 0.530717 0.838875 
0.000295 0.606684 0.783132 
0.001504 0.676556 0.719422 
0.001683 0.740272 0.649818 
0.001982 0.797129 0.573169 
0.001938 0.847146 0.491215 
0.002458 0.889246 0.404459 
0.002741 0.923117 0.314038 
0.002673 0.948147 0.220207 
0.002616 0.965057 0.124019 
-0.104836 0.001243 0.995294 
-0.207130 0.000830 0.979829 
-0.307117 0.000799 0.955200 
-0.403335 0.000677 0.920039 
-0.495413 0.000155 0.876085 
-0.583339 0.000195 0.823747 
-0.664377 -0.000917 0.762724 
-0.738726 -0.001097 0.694027 
-0.806943 -0.000840 0.619074 
-0.866328 -0.000748 0.538127 
-0.917542 -0.000768 0.451935 
-0.958233 -0.001100 0.360830 
-0.990373 -0.001290 0.266706 
-1.013240 -0.001753 0.170341 
-1.025262 -0.001667 0.072532 
-0.001773 -0.091786 0.995928 
-0.001621 -0.183783 0.982412 
-0.001094 -0.274380 0.959801 
-0.001021 -0.362550 0.927791 
-0.000188 -0.448065 0.887745 
0.000035 -0.528547 0.839464 
-0.000026 -0.604684 0.783911 
0.000717 -0.675558 0.720962 
0.000609 -0.739123 0.650553 
0.001057 -0.796283 0.574226 
0.002220 -0.846514 0.491944 
0.002744 -0.888954 0.405343 
0.002812 -0.922867 0.314947 
0.003361 -0.948175 0.221016 
0.003474 -0.964923 0.124715 
0.795650 0.432893 0.448600 
0.352657 0.357005 0.864059 
0.348507 0.831551 0.390476 
0.922977 0.314180 0.297517 
0.963674 0.261633 0.217093 
0.986660 0.201580 0.190573 
1.002153 0.192250 0.108093 
0.533667 0.767248 0.330012 
0.541335 0.306362 0.788342 
0.289216 0.650452 0.688763 
0.743523 0.611534 0.283798 
0.751784 0.275473 0.616818 
0.773417 0.614590 0.184273 
0.791921 0.176550 0.609022 
0.217637 0.510199 0.824641 
0.217307 0.786092 0.550034 
0.860977 0.493519 0.199961 
0.861890 0.200514 0.502023 
0.141477 0.399189 0.902650 
0.141575 0.864665 0.438612 
0.416963 0.725352 0.528610 
0.419338 0.495244 0.757755 
0.432013 0.866558 0.170909 
0.442530 0.147258 0.888510 
0.914471 0.421427 0.139279 
0.923805 0.172167 0.398673 
0.094473 0.328677 0.937036 
0.095593 0.900243 0.367152 
0.287964 0.925016 0.134907 
0.295804 0.106886 0.950876 
0.961028 0.339272 0.067819 
0.966736 0.090941 0.327583 
0.585683 0.561335 0.584120 
0.088258 0.267143 0.958418 
0.089128 0.922034 0.303553 
0.229269 0.942128 0.109232 
0.234873 0.081494 0.969215 
0.999615 0.106440 0.207238 
0.987848 0.262628 0.048789 
1.016998 0.094158 0.111985 
0.676697 0.410923 0.620652 
0.672547 0.606462 0.426951 
0.541752 0.692952 0.463191 
0.546189 0.438500 0.716947 
0.786806 0.532282 0.336776 
0.786946 0.333503 0.539763 
0.729854 0.484792 0.495982 
0.399693 0.619840 0.665848 
0.343021 0.176959 0.924430 
0.335110 0.896984 0.205841 
0.400828 0.850026 0.289625 
0.408170 0.260812 0.877645 
0.347907 0.696050 0.613880 
0.347779 0.576076 0.731633 
0.483036 0.745127 0.438233 
0.487692 0.409821 0.771674 
0.283860 0.445738 0.844446 
0.282223 0.808202 0.484080 
0.488447 0.817738 0.258702 
0.497525 0.234297 0.839521 
0.317025 0.510226 0.793374 
0.316340 0.757432 0.548642 
0.239175 0.387892 0.886924 
0.237239 0.850071 0.425887 
0.872946 0.422696 0.297729 
0.892582 0.263530 0.411739 
0.448910 0.332478 0.831629 
0.442683 0.805278 0.361980 
0.384183 0.784591 0.458187 
0.387928 0.424216 0.816651 
0.108031 0.546782 0.820959 
0.109035 0.779566 0.588796 
0.218111 0.726042 0.631006 
0.217908 0.590709 0.765915 
0.080215 0.466723 0.874954 
0.081112 0.834669 0.508111 
0.670642 0.290133 0.693921 
0.661862 0.681591 0.304599 
0.507482 0.841948 0.086408 
0.521684 0.070361 0.857149 
0.187297 0.884911 0.374124 
0.188237 0.335933 0.920742 
0.225451 0.926392 0.211781 
0.229756 0.179432 0.956848 
0.449813 0.652843 0.597864 
0.438154 0.551065 0.705870 
0.275895 0.281385 0.918615 
0.271499 0.886146 0.315814 
0.961317 0.196982 0.288871 
0.943959 0.342330 0.177363 
0.179211 0.463044 0.863121 
0.178140 0.823328 0.502732 
0.430701 0.879718 0.074548 
0.444445 0.054765 0.899335 
0.361318 0.904250 0.105142 
0.372742 0.081032 0.927651 
0.062484 0.403113 0.908880 
0.064267 0.869289 0.443183 
0.114735 0.941389 0.222756 
0.114287 0.188561 0.974710 
0.164510 0.263972 0.949321 
0.162952 0.914608 0.300647 
0.635095 0.480318 0.611121 
0.632873 0.592340 0.499318 
0.567625 0.634339 0.517981 
0.570759 0.494485 0.658348 
0.760427 0.409720 0.522868 
0.766043 0.506888 0.415843 
0.665834 0.522431 0.539251 
0.571300 0.774679 0.237774 
0.582266 0.219531 0.791160 
0.834516 0.489928 0.293261 
0.839627 0.298353 0.483645 
0.699591 0.553082 0.460974 
0.701966 0.446903 0.566357 
0.808886 0.367240 0.483613 
0.731473 0.370017 0.588366 
0.726642 0.579184 0.380791 
0.497348 0.681556 0.524825 
0.499876 0.495415 0.709537 
0.860800 0.363311 0.396031 
0.822258 0.460750 0.367244 
0.928832 0.233339 0.353401 
0.979920 0.260276 0.132745 
0.587145 0.707850 0.379766 
0.593417 0.358759 0.726810 
0.673836 0.354096 0.659788 
0.666963 0.646113 0.369656 
0.524488 0.619957 0.577107 
0.497447 0.573556 0.647076 
0.182403 0.666244 0.707312 
0.613309 0.649083 0.445580 
0.618083 0.425262 0.668009 
0.100679 0.636040 0.752299 
0.102085 0.708933 0.679447 
0.701545 0.675841 0.222977 
0.712445 0.212873 0.684197 
1.024392 0.079969 0.036696 
0.556937 0.146478 0.825200 
0.543628 0.809887 0.164018 
0.773853 0.081304 0.650173 
0.757484 0.652575 0.083492 
0.813336 0.256795 0.548596 
0.804877 0.551924 0.249439 
0.821127 0.575907 0.103420 
0.835143 0.091451 0.573007 
0.143405 0.087044 0.985816 
0.141617 0.956906 0.116359 
0.934814 0.074456 0.408379 
0.921780 0.425336 0.057447 
0.881031 0.494145 0.079027 
0.893591 0.091116 0.483218 
0.905303 0.404345 0.223879 
0.633611 0.252918 0.741584 
0.623163 0.726835 0.268600 
0.063364 0.966978 0.086897 
0.062023 0.058346 0.996569 
0.063275 0.122989 0.990552 
0.064856 0.958669 0.154530 
0.683366 0.722820 0.078032 
0.699436 0.071607 0.726319 
0.599189 0.786427 0.083626 
0.615113 0.071698 0.795999 
0.726363 0.674276 0.140115 
0.739289 0.133954 0.677732 
0.637983 0.743876 0.171019 
0.651760 0.158431 0.754909 
0.816852 0.561514 0.185162 
-0.465304 0.440834 0.769435 
-0.379402 0.835641 0.354280 
-0.892112 0.366234 0.323163 
-0.348121 0.306747 0.887659 
-0.265600 0.266193 0.926988 
-0.226276 0.196833 0.955042 
-0.170680 0.128098 0.978299 
-0.327848 0.763192 0.532687 
-0.822693 0.311791 0.506064 
-0.694573 0.664754 0.277599 
-0.297422 0.602276 0.731151 
-0.656445 0.276115 0.714355 
-0.190669 0.595632 0.768877 
-0.669718 0.181484 0.735086 
-0.541589 0.799150 0.219360 
-0.840087 0.525732 0.199753 
-0.216265 0.496045 0.834155 
-0.520861 0.209441 0.835924 
-0.419794 0.875268 0.152880 
-0.921698 0.413435 0.120316 
-0.776996 0.504957 0.395135 
-0.529688 0.732431 0.411236 
-0.154563 0.859437 0.442656 
-0.926547 0.151101 0.404137 
-0.169559 0.420389 0.887506 
-0.443910 0.154788 0.889116 
-0.344741 0.910198 0.111174 
-0.958536 0.340982 0.072433 
-0.111180 0.919616 0.305752 
-0.985830 0.110316 0.259671 
-0.369554 0.088511 0.929221 
-0.096813 0.337682 0.933989 
-0.603079 0.564991 0.564548 
-0.278951 0.929642 0.107139 
-0.982912 0.277069 0.064205 
-0.083924 0.938406 0.248957 
-1.003097 0.083274 0.200826 
-0.246455 0.104494 0.965555 
-0.114449 0.214309 0.969972 
-0.166425 0.057955 0.985494 
-0.442100 0.602899 0.656369 
-0.652159 0.413255 0.646121 
-0.468929 0.693899 0.531841 
-0.744043 0.444066 0.516850 
-0.572248 0.330919 0.757789 
-0.360390 0.528894 0.763358 
-0.521863 0.482791 0.704345 
-0.664115 0.640955 0.385113 
-0.186132 0.894204 0.349583 
-0.958948 0.182393 0.307411 
-0.276035 0.847734 0.408360 
-0.910558 0.266882 0.373450 
[...]
POINT_DATA 2044
SCALARS u float 1
LOOKUP_TABLE default
4.134588
4.020686
3.986565
4.090630
0.223345
4.113823
3.905728
3.529533
3.046565
2.499931
2.020518
1.581165
1.329426
1.482617
1.910321
2.461920
3.036374
3.477911
3.781152
4.019382
3.935210
3.738132
3.347763
2.853000
2.291752
1.666601
1.103760
0.885118
1.184407
1.719908
2.325705
2.910656
3.380152
3.711274
3.907482
3.904724
3.710697
3.355316
2.925516
2.417609
1.849443
1.404534
1.187996
1.417894
1.837591
2.406645
2.948225
3.418695
3.781381
3.955698
4.019439
3.837455
3.513361
3.204779
2.667789
2.236263
1.889199
1.740667
1.855711
2.176055
2.619868
3.087642
3.444211
3.874507
4.078561
4.303151
4.445350
4.462885
4.392648
4.270665
4.066468
3.821366
3.565622
3.244159
2.850284
2.381917
1.931674
1.441547
0.932952
0.393378
0.485076
1.005591
1.425945
1.882292
2.293796
2.740820
3.117662
3.484668
3.828636
4.083243
4.234919
4.331168
4.377439
4.361493
4.214771
0.732559
1.279345
1.790324
2.220960
2.611964
3.046034
3.351349
3.618010
3.935474
4.120103
4.290299
4.304294
4.325619
4.317290
4.169844
0.689189
1.219315
1.711658
2.170134
2.541402
2.978119
3.344347
3.642200
3.968078
4.210339
4.332538
4.409214
4.455037
4.416905
4.280507
3.348658
2.332007
3.941525
3.857391
3.992292
4.231911
4.184774
3.206231
2.807124
3.438702
2.820196
3.473615
2.589887
3.711866
2.715153
3.975544
3.026218
4.006029
2.090536
4.217229
3.592548
2.942993
3.393298
2.181503
3.200682
4.187022
1.708648
4.358675
3.802326
1.515269
3.498391
4.436002
3.225672
1.381472
4.434719
3.950660
1.144088
4.448176
3.754729
4.349146
3.253966
3.089458
3.308545
3.001690
3.092952
3.549809
3.281708
3.390123
1.794987
3.833056
3.704461
2.214922
3.539467
3.196492
3.482440
2.839636
2.584218
3.989282
3.327609
2.516645
2.924827
3.767693
2.246764
4.161459
3.455039
3.940093
2.552080
3.542237
3.746792
2.692145
2.865237
3.992942
3.769902
3.114289
2.428259
4.178958
3.201850
2.878290
2.756424
2.486306
4.234955
1.900468
4.110981
1.408677
3.420224
3.182680
1.837605
4.098595
4.249402
3.605779
2.465992
4.140424
3.175948
2.163573
3.557998
1.834170
2.082712
4.339291
4.345051
1.073606
1.580303
4.313068
3.175797
3.174749
3.250915
3.126009
3.396829
3.215122
3.236414
2.908137
2.855635
3.204642
3.734985
3.164648
3.284301
3.502621
3.368202
3.053144
3.395452
3.066119
3.621593
3.331625
4.126839
3.889777
3.120388
3.004515
3.259727
2.990851
3.295982
3.260583
3.477932
3.147999
3.170478
3.292662
3.642705
2.679865
3.347959
4.245190
2.712904
2.799418
3.656248
2.157000
3.772278
2.854760
2.415287
3.941033
0.712582
4.117099
4.369125
2.991258
2.706461
4.181186
3.414137
3.067945
2.876059
4.164883
0.295958
0.643037
4.273093
2.143976
3.335949
2.380214
2.960820
2.360304
3.458532
2.562416
3.148900
2.735589
2.793434
3.427304
3.531202
2.326337
1.899262
1.570542
1.202585
3.466621
3.629766
2.228891
3.121182
3.282425
3.067257
3.348520
2.495390
2.586141
2.688948
2.778521
3.006544
3.029625
2.866118
2.782834
4.049807
4.140853
2.248023
2.453785
3.292208
3.274177
4.255481
4.277598
2.058835
1.806315
2.847185
3.652217
3.590005
4.253286
4.277055
1.480981
1.250330
1.067054
2.996944
3.133231
2.981932
3.141494
2.994586
2.911203
2.920794
2.547206
4.054801
4.124101
3.805787
3.855195
2.460818
2.527789
3.095284
3.276467
2.924180
3.007213
3.748199
3.871651
2.713020
2.630583
3.209173
3.179090
2.426806
2.624074
3.611306
3.519681
3.312649
3.110701
2.101205
2.036496
2.199174
2.155250
2.481886
2.507064
3.423961
3.254724
4.171935
4.246031
3.390265
3.385021
4.035122
4.036035
2.681120
2.663613
3.772799
3.727479
2.037993
2.778506
2.708860
4.209790
4.304038
4.228009
4.291735
2.864744
2.873742
3.927462
3.890489
3.697683
3.710525
2.892116
2.992767
2.962970
2.851580
2.864746
2.898638
2.931059
3.648639
3.870259
2.836668
2.709829
3.010495
2.950557
2.772230
3.030088
3.068285
1.991377
2.818022
2.972160
2.620523
2.790799
1.618271
3.227182
3.374096
3.142106
3.281025
2.848514
2.736820
1.920497
3.127975
3.010924
1.688890
1.667909
3.536386
3.392528
4.075576
3.932800
3.290197
3.445643
2.886085
3.084960
3.123931
2.951649
4.154936
4.149622
2.440578
2.152386
2.515487
2.867661
3.630815
3.433965
4.062498
4.117845
3.966364
4.034155
2.427326
3.598447
3.797802
3.908173
4.088651
3.247377
3.358329
3.582028
3.849052
3.675473
0.862308
0.537467
2.794785
3.499013
3.358053
2.374459
1.975617
1.651674
3.588593
3.540951
2.038610
3.179076
3.209925
3.207757
3.340251
2.431699
2.345082
2.776050
2.772610
3.005511
2.932621
2.707548
2.841749
4.146385
4.211522
2.471358
2.433030
3.280414
3.213432
4.232089
4.316194
2.055214
2.129414
2.751089
3.617911
3.580963
4.247630
4.339882
1.722266
1.754248
2.999359
2.974129
3.030040
2.971553
2.889861
2.976027
2.806703
2.434153
4.154622
4.141410
3.901717
3.829367
2.443046
2.307828
3.152638
3.102344
2.929789
2.792574
3.882343
3.893659
2.509950
2.676705
3.117930
3.229155
2.547555
2.646360
3.508307
3.592816
3.004274
3.156953
1.854318
1.943079
1.906539
1.999908
2.439202
2.337146
3.398453
3.361548
4.192608
4.215248
3.422845
3.326983
4.128865
4.146095
2.592803
2.646968
3.721203
3.829021
2.099416
2.096314
2.582733
2.651370
4.258190
4.338376
4.235964
4.347778
2.759473
2.849749
3.888309
3.905818
3.692210
3.724256
2.836869
2.835565
2.806093
2.853642
2.841821
2.847941
2.804704
3.868117
3.779500
2.835132
2.789496
2.865079
2.866520
2.857919
2.977953
2.986716
2.845163
2.793680
2.627716
2.710219
3.307499
3.295309
3.161094
3.170150
2.378050
2.667744
2.646375
1.641236
2.997198
3.025308
1.376254
1.437995
3.470690
3.504518
4.029142
4.099810
3.432832
3.439631
2.948572
3.067845
3.103965
3.090524
4.182526
4.250779
2.357457
2.452682
2.797093
2.811501
3.608504
3.593031
4.175458
4.093217
3.988902
3.993479
2.474860
3.761149
3.824725
4.041400
4.001217
3.193114
3.550601
3.545891
3.818142
3.834559
1.353149
1.343417
0.946621
1.336569
3.192879
3.906180
2.443740
3.792477
4.038179
4.188604
4.264406
4.274561
3.009133
2.794098
3.515238
2.539204
3.510088
2.266380
3.645965
4.075891
2.912123
2.743852
3.941546
4.397938
2.363854
2.949631
3.573669
3.200300
2.227483
4.224251
3.191807
4.431429
1.972462
3.737774
1.527283
3.389752
4.406798
3.073091
4.464147
1.651034
3.877043
1.193352
3.890991
4.400859
2.855663
3.126225
3.179206
2.914318
3.467020
2.843402
3.056372
3.406015
3.673484
1.907321
3.589716
2.312031
3.647263
3.205699
3.375406
2.793278
4.006877
2.673343
3.111581
2.608351
2.948251
3.867807
2.394299
4.175236
3.245953
3.744132
2.567322
3.519109
2.680118
3.751437
3.073352
4.146481
3.227181
3.863828
4.386800
2.674729
3.184759
2.518939
2.547495
2.523482
4.306191
2.117503
4.121895
1.496406
3.147016
3.458855
2.039560
4.090162
4.209089
3.697659
2.695268
4.259048
2.973133
2.132487
3.362902
1.849330
2.331497
4.416164
4.335941
1.282339
1.714196
4.306647
2.960812
3.046554
3.031513
3.145894
2.965203
3.273991
3.030694
2.614794
2.908800
3.649356
2.958108
3.118728
2.928089
3.048282
2.811015
3.241092
3.309792
2.988874
3.368129
3.451182
2.912088
2.957327
2.749355
3.198380
3.469320
3.096137
3.289346
3.692931
3.082974
2.956769
3.497844
3.874631
3.371854
2.242115
2.756795
2.558640
1.828768
3.753423
2.681761
3.717812
3.928510
2.157860
4.153343
0.844858
4.305374
2.982664
2.589845
4.165988
3.073443
2.508253
0.476222
4.145761
0.863645
4.323796
3.998701
1.756943
3.433568
2.047370
2.996894
3.957216
1.956190
3.525453
3.167498
2.193219
4.015184
4.438384
0.145226
2.287347
2.283160
2.233387
2.163455
1.933347
2.102081
2.054379
1.848825
2.983463
2.329397
1.358592
1.347170
1.205955
3.160210
2.241937
1.300059
2.909369
3.117582
2.184635
2.308705
1.160908
3.210891
3.221361
3.175625
3.270724
2.437249
1.882283
1.614337
2.138948
2.850842
2.141352
2.153609
2.715307
1.964564
1.636170
1.411663
1.752223
2.255735
1.848448
2.252426
2.107357
1.190436
1.953660
2.922449
3.502932
3.573779
2.957086
1.590672
3.646766
0.719685
2.788869
3.146436
3.622820
2.957881
2.240899
1.536418
0.847145
2.567757
2.990656
2.819211
2.570634
0.815023
3.509076
2.155525
1.963105
2.015710
2.459709
0.751565
2.805865
2.843364
3.317023
2.000899
2.056897
2.965229
2.581003
2.540332
1.939416
1.883967
1.717529
1.729387
1.639047
1.566319
2.653791
1.870085
2.255551
2.543061
1.842026
1.800200
2.494063
0.584461
2.035524
2.487016
3.461613
1.598834
2.111603
2.044699
0.933284
3.697536
1.744955
1.918241
3.386612
1.415734
3.436249
1.769394
1.178152
2.353636
3.739719
1.995266
2.651146
3.631241
1.803596
2.193307
2.561228
1.602857
3.556151
3.455716
1.872923
2.673876
1.829626
2.180256
1.172312
1.426238
3.775762
3.198062
2.041484
0.904586
2.317708
1.981751
2.089902
2.680442
2.631639
3.708917
2.541538
1.976979
2.080525
2.064060
1.604703
2.787208
3.230491
2.839016
2.781247
2.094221
1.240343
1.665093
2.810046
2.388283
1.906443
1.251498
1.849602
2.769019
3.086669
2.121306
2.126115
1.716239
1.778202
1.154089
1.103665
3.252224
3.807378
0.687329
3.305167
2.884328
2.358064
2.918023
2.848498
2.342305
2.892986
2.604161
2.058494
2.236675
2.914490
1.784992
1.115120
2.807365
1.720812
1.619306
1.811686
2.091371
2.543178
1.993678
3.754397
2.541446
3.262153
3.178862
3.872767
3.363384
0.417032
2.260398
3.209874
3.324216
1.762696
2.133936
0.606116
1.565683
1.254430
2.210164
2.779004
2.325401
2.867503
2.215221
1.844434
3.064131
1.865016
0.782747
0.480628
2.129302
3.495221
3.275873
2.409113
3.827345
3.093968
2.347707
3.419109
2.473007
2.681208
1.687908
3.213493
1.581535
1.502874
2.674560
2.171296
2.336094
2.785583
2.204700
3.579297
3.222694
1.989998
1.484865
0.321652
3.491017
2.119433
3.660766
3.097166
3.920454
2.329894
3.059853
3.916625
2.992461
2.380493
2.192348
3.528565
1.988865
3.189930
1.903381
3.503739
2.318595
2.564217
3.521670
1.994622
1.918406
2.411043
1.490021
1.756619
1.965907
2.728016
1.845035
1.945429
1.454317
2.125856
1.945581
3.175828
3.005618
0.991539
2.313692
1.980133
0.985088
1.782242
2.673927
1.523096
1.216740
3.520062
2.525457
2.596263
2.281476
1.627050
1.262277
1.866519
3.106935
1.881092
1.688995
2.483983
3.006640
2.469244
2.991979
2.530739
1.946583
3.687320
0.352249
1.044800
2.072982
1.994644
1.953821
2.266637
3.738871
1.614764
2.102108
2.680325
1.731818
1.746431
2.424985
1.576341
1.650701
1.482095
3.888268
3.861873
2.334940
2.531372
1.054789
3.165514
1.881421
2.563940
1.856787
0.922650
1.935213
1.512810
1.987434
0.816328
3.439679
2.301365
2.115290
2.573566
2.120445
1.952312
3.355413
1.823009
2.379972
1.905458
2.852512
2.422488
3.124534
2.989791
1.845116
3.048557
3.486672
2.306301
1.541321
1.425294
2.027296
3.475589
2.465073
1.862091
2.132856
3.343276
2.349424
1.941266
1.585013
2.508460
1.942511
2.196856
1.628788
3.245990
2.821520
2.608773
2.595406
1.997207
2.862746
1.228269
2.177993
1.921817
1.479957
1.880890
2.099870
1.585607
3.866070
1.932661
0.552401
1.660434
1.801854
2.079318
2.534290
1.582342
3.265506
2.647492
3.535843
3.977174
2.611720
3.560042
2.833996
3.253712
2.966468
2.206254
2.425415
1.877655
3.499714
2.696421
3.221779
2.287522
1.473105
1.619542
2.089718
1.744754
2.266049
2.390145
0.941345
1.140267
3.803457
1.186118
0.789028
3.627806
2.169112
3.018002
3.167173
1.082599
1.039850
2.145980
3.980989
3.903631
2.167819
3.207709
3.181661
2.423798
1.529026
3.339274
3.286356
4.099469
3.761027
3.868557
3.818042
3.120864
2.302140
2.277163
2.151644
2.428188
3.282826
3.266362
2.621847
4.100190
3.980307
1.519714
2.118712
1.565215
0.804911
0.779880
1.600873
0.717185
0.655280
0.735844
1.655386
1.657689
0.782591
1.626055
2.533742
1.666136
1.674361
1.571285
1.615408
1.963477
0.851740
0.899648
1.526211
0.718703
0.789317
0.763550
1.544547
2.481630
1.657621
0.724775
0.637194
2.698708
2.475518
2.634836
2.484587
2.539571
2.352302
3.126770
2.485573
2.886240
2.432666
3.087592
2.303193
2.730332
2.709174
2.619731
2.547126
2.531144
2.747502
2.613976
2.493474
2.512020
2.473085
2.522953
3.110450
3.002468
3.320408
2.797995
2.593560
2.957656
2.746963
2.509424
3.192014
4.034444
3.585910
2.493658
3.242686
3.214010
3.778341
3.448592
1.432493
3.979049
3.834386
3.479226
2.357518
1.523639
2.506584
2.313106
1.921082
2.857279
2.986149
3.061274
2.954596
2.857124
2.482666
2.489855
2.587190
2.810765
2.990044
2.688080
2.718802
3.073430
3.053369
1.416022
1.637397
2.830814
2.855337
2.241150
2.001010
1.604746
1.659901
1.982131
1.607212
1.693723
1.611723
2.217634
4.080400
3.577481
3.678946
3.941833
2.596418
1.452036
1.027513
1.096445
0.396948
2.459808
1.233473
1.560539
1.582903
3.946591
3.960529
3.214099
2.362925
3.301831
4.191221
3.241162
2.374332
3.108069
3.350284
2.470297
4.085062
2.899445
2.598355
2.386965
2.561298
2.521230
1.999231
2.441079
3.162183
2.716931
3.181124
3.851000
3.510102
2.589402
2.460171
4.041651
3.670179
3.053686
2.377250
1.863187
4.064780
3.483808
1.690418
3.771327
3.922950
2.674420
3.036133
2.763557
2.913062
3.193524
3.136802
3.087496
3.355118
3.719664
3.508912
2.933959
3.823945
3.550216
3.984117
3.687833
2.769020
0.260088
0.285213
1.631668
0.698051
0.704208
0.760325
0.769542
3.208351
0.688634
2.463062
3.817418
3.851460
2.776974
2.387024
3.037070
3.132598
2.788874
2.521397
3.211481
3.295480
3.294081
2.514100
3.123854
3.127525
4.098165
2.351274
2.939357
2.339302
2.565240
2.560291
2.550361
2.460161
1.998973
1.941035
2.580959
2.729649
2.520047
2.670558
3.719044
4.142636
3.824920
1.577240
3.991407
1.840254
2.301202
1.688956
1.826665
1.789862
2.300489
3.816385
2.618786
2.513345
1.941067
2.339007
3.881531
1.587309
2.683553
2.680624
2.672193
2.851851
2.738769
3.810195
2.691791
2.955223
2.454937
2.948199
2.823236
3.043896
3.125177
2.836765
2.863304
3.116304
2.663557
2.727287
2.633566
0.338150
4.060490
3.977923
3.722044
4.079025
3.774507
4.199758
3.928374
4.191929
1.012717
0.830277
1.304033
1.317639
0.860259
0.452607
0.729318
3.531294
3.556084
3.904240
3.833671
2.537324
2.922762
2.340588
2.378395
2.611693
2.990245
2.705680
2.455808
3.270842
3.423329
2.889453
3.219841
2.668845
2.478273
2.336183
2.325637
3.214379
3.209438
3.149150
2.528033
3.857835
4.039707
3.830829
3.456965
3.952988
2.750747
2.777506
2.900927
2.774976
2.890987
2.790235
2.966573
3.059183
3.043057
2.376520
2.825348
2.799505
2.298723
3.908003
2.727817
3.116217
3.552579
3.145645
3.534824
2.715153
3.088157
1.130747
1.749441
0.692906
2.425089
2.557752
1.479288
1.489994
1.491695
1.832745
1.503404
2.453641
2.106712
2.269413
2.325299
1.495150
1.821362
1.636979
1.794536
0.646530
1.571655
2.352544
2.087405
2.356767
1.948105
2.067552
0.684092
1.236110
0.649819
0.694871
2.042516
2.149708
2.154815
1.588038
1.610538
2.012655
1.155702
3.621154
2.627802
2.286642
2.442757
2.648537
2.396363
1.611343
1.240871
1.311822
1.652349
1.726914
1.928105
2.083474
2.200966
2.275061
2.127008
3.764662
2.349603
1.944919
1.938398
2.124134
2.863353
3.010055
2.673731
2.553502
2.896380
2.836119
2.345088
2.789494
2.995088
2.698691
2.652444
2.304159
2.262112
2.766022
2.403595
2.733554
2.352685
2.309230
1.966523
2.487843
2.548546
2.673143
2.840563
2.344198
2.324665
2.733516
2.331937
2.068939
2.316638
1.467305
3.685994
3.881720
0.877547
2.519818
1.602776
1.579586
2.313196
2.312798
2.652638
1.579855
3.421061
3.507147
3.625566
2.240293
3.068320
1.153900
1.257343
1.328534
0.737855
3.183688
3.355195
3.363272
3.165485
3.028382
3.199251
2.098843
2.157119
2.381317
2.490488
0.745184
3.855645
3.228087
3.404410
3.150251
1.958289
1.532845
2.080368
0.664513
2.788326
2.931338
3.798735
2.031939
3.376141
3.087865
3.435632
0.666286
1.641455
1.763460
2.541056
2.790909
2.864705
2.757676
2.809140
2.018066
3.058351
1.491334
1.916507
1.635887
1.092721
2.633828
2.901942
3.091515
2.180955
2.408800
2.564345
2.771206
1.816001
1.917885
2.128117
2.152838
2.353343
3.162868
1.936016
2.361001
2.269807
2.349034
3.898776
4.094726
3.384352
0.359601
2.305302
1.980417
2.407218
2.816935
2.592460
2.423967
2.792736
2.414595
2.835550
1.948912
2.461768
0.728555
0.720119
0.765689
1.163098
1.247608
1.236992
2.645825
2.399774
2.433402
2.009925
2.543249
2.314662
2.950388
2.643930
2.843333
2.184034
2.461673
2.752714
2.058265
1.862417
2.009350
1.706444
1.990942
1.611021
1.502591
1.704049
1.915672
3.327934
2.521839
1.083452
1.065154
1.173292
3.493951
2.328747
1.646299
2.238059
2.470371
2.391303
2.755009
2.362011
3.183737
3.105930
3.258987
3.400721
2.787407
3.215188
3.310378
3.052687
3.289670
2.642376
2.872584
2.804374
3.736333
3.890937
3.183641
2.966323
2.018888
2.116086
2.893388
3.411332
3.337623
2.213392
2.289254
3.486729
3.402069
3.631155
1.548907
1.624651
1.694363
1.993144
1.569389
1.233863
1.700955
1.153802
2.186168
2.106114
2.339102
3.030291
3.629415
3.782201
3.526869
2.155680
2.673882
1.659411
3.514141
2.014274
1.516123
3.537682
1.746406
1.446595
2.700435
2.479789
2.910132
2.717170
2.832547
0.903358
2.447075
2.558307
3.456582
3.621164
3.014485
3.154284
2.261012
3.207267
3.339268
3.214233
3.030178
2.504918
2.764470
2.584124
2.268723
0.288935
0.273042
0.300068
2.177441
2.368356
1.435698
3.071446
3.246456
2.829233
2.691840
2.890685
3.477433
1.950489
3.145339
3.035092
2.689552
2.482441
2.393620
2.476000
2.294214
2.630440
1.974888
1.977911
3.590957
2.865263
0.690649
3.304128
3.111280
3.494584
3.469758
3.616446
2.300894
2.968247
3.172394
2.017205
2.161878
2.522731
2.279645
1.394716
1.218357
1.529206
3.263421
0.674722
2.875137
2.663779
2.824343
2.931937
2.153768
2.038023
2.593393
1.071477
1.183659
2.068373
2.709766
2.887674
3.331413
0.901082
3.450561
3.288943
3.643590
2.612644
0.327322
1.195427
1.275052
2.412194
2.913331
1.757209
1.590871
1.702710
2.165530
1.324623
2.444732
2.583493
2.727157
2.273218
2.435750
3.617043
3.842825
2.263611
2.145619
3.681681
3.826761
2.412013
2.234496
3.528486
2.782568
2.657656
2.519104
3.756056
3.487152
2.856875
2.407719
3.810764
3.072187
3.235325
2.757604
1.782540
1.975502
3.240621
3.705319
3.967982
2.243479
0.948895
1.263945
1.354582
1.000130
1.919237
2.107115
2.414411
1.245958
1.323789
2.822230
2.960181
2.912498
2.228096
2.374535
2.031387
2.479139
2.150256
2.536517
3.078811
2.605055
3.176152
3.620648
3.200752
0.849417
0.854287
1.104881
1.317553
0.415236
0.855250
1.299884
1.301310
1.467792
1.395571
2.263745
2.705957
2.310494
1.889953
2.723413
1.483597
2.357943
2.700271
2.301053
2.006610
2.741467
1.696181
1.446344
1.295043
0.816600
1.077591
1.339099
1.862314
1.398355
1.847197
1.902363
1.525498
2.003088
1.495303
1.342272
1.716153
1.473682
2.004174
1.971478
0.830977
0.401377
1.056983
1.900468
1.862936
2.014193
1.500054
2.270885
2.262165
2.328052
2.418787
3.252489
2.594253
1.896814
1.612258
2.245793
2.222308
1.375808
1.517126
1.418647
1.310559
2.335363
1.837604
1.952219
2.688756
2.663844
2.657274
2.269018
3.094947
3.274912
2.665854
2.669726
2.631675
2.271069
2.486210
2.349811
2.669222
2.646877
2.871082
2.884708
3.192900
2.538224
2.125162
2.770207
2.481363
2.609197
2.690023
3.053860
2.665114
2.596651
2.636450
2.325828
3.211594
2.907767
