# vtk DataFile Version 2.0
Unstructured Grid Example
ASCII
DATASET UNSTRUCTURED_GRID
POINTS 2044 float
1.040906 -0.002766 -0.041367 
0.003853 0.959831 0.039743 
-1.040997 -0.002360 -0.038306 
0.005025 -0.958849 0.040022 
-0.002795 0.001439 1.000130 
1.035417 -0.099258 -0.041690 
1.019407 -0.195405 -0.039183 
0.990627 -0.289631 -0.036562 
0.954083 -0.381063 -0.030445 
0.907149 -0.467619 -0.024278 
0.852826 -0.548992 -0.017628 
0.790597 -0.624889 -0.009822 
0.720537 -0.694268 -0.002349 
0.644036 -0.755326 0.005518 
0.562832 -0.809416 0.013604 
0.476987 -0.855063 0.021216 
0.387485 -0.891394 0.027406 
0.294910 -0.921658 0.033674 
0.199252 -0.942552 0.036850 
0.102841 -0.954551 0.039133 
-0.091904 -0.955939 0.038669 
-0.189341 -0.942760 0.035970 
-0.285007 -0.922699 0.031994 
-0.379113 -0.894238 0.026903 
-0.468548 -0.857302 0.020687 
-0.555728 -0.813407 0.014996 
-0.638146 -0.759923 0.007509 
-0.715455 -0.697864 -0.000568 
-0.786191 -0.628828 -0.008584 
-0.850522 -0.553220 -0.014780 
-0.906300 -0.472112 -0.021874 
-0.953619 -0.384201 -0.028185 
-0.991508 -0.292961 -0.032636 
-1.018294 -0.197716 -0.036322 
-1.035143 -0.100484 -0.037776 
-1.035829 0.096440 -0.037028 
-1.019597 0.193943 -0.034994 
-0.992734 0.288082 -0.030788 
-0.955796 0.379368 -0.025858 
-0.909351 0.467706 -0.019844 
-0.852844 0.549814 -0.013738 
-0.789822 0.626086 -0.006310 
-0.718983 0.695364 0.001065 
-0.642105 0.756395 0.007962 
-0.559296 0.810212 0.014292 
-0.471713 0.855507 0.021249 
-0.381321 0.892315 0.026956 
-0.286847 0.921463 0.032384 
-0.191052 0.942578 0.036895 
-0.094161 0.955155 0.038572 
0.101773 0.954038 0.038714 
0.199825 0.941766 0.037111 
0.295836 0.921191 0.033772 
0.388611 0.889808 0.029018 
0.478851 0.851343 0.020535 
0.566686 0.805909 0.014677 
0.648143 0.751585 0.007753 
0.724515 0.689842 -0.000362 
0.794754 0.621809 -0.007225 
0.856379 0.545601 -0.014824 
0.910510 0.463826 -0.022076 
0.957029 0.378463 -0.027841 
0.992221 0.286908 -0.033133 
1.019413 0.192470 -0.038469 
1.036470 0.095319 -0.039863 
1.040645 -0.003163 0.058045 
1.029694 -0.003119 0.156109 
1.007692 -0.002214 0.253249 
0.975541 -0.002421 0.348712 
0.933562 -0.001619 0.440579 
0.881890 -0.001448 0.528423 
0.821321 -0.000669 0.610659 
0.753445 0.000050 0.687727 
0.677018 -0.000814 0.756551 
0.594186 -0.000604 0.820491 
0.503911 -0.000120 0.873636 
0.409344 0.000339 0.918447 
0.310295 0.000115 0.953485 
0.208128 0.001041 0.979505 
0.103421 0.001221 0.995080 
-0.002538 0.091686 0.995597 
-0.002728 0.181229 0.981822 
-0.001924 0.270607 0.960487 
-0.001759 0.356854 0.929606 
-0.001112 0.440270 0.890519 
-0.000484 0.518572 0.842494 
0.000439 0.593144 0.788078 
0.002239 0.661627 0.725440 
0.002506 0.724274 0.657355 
0.002950 0.780348 0.581768 
0.002885 0.830152 0.500899 
0.003659 0.872322 0.415100 
0.004080 0.906588 0.325645 
0.003979 0.932197 0.232481 
0.003894 0.950334 0.136725 
-0.108168 0.001850 0.995347 
-0.213013 0.001235 0.979362 
-0.315343 0.001189 0.954349 
-0.413426 0.001007 0.918163 
-0.507149 0.000230 0.873233 
-0.596909 0.000290 0.819973 
-0.679029 -0.001365 0.757698 
-0.754178 -0.001633 0.687635 
-0.823524 -0.001251 0.611588 
-0.883363 -0.001114 0.529602 
-0.934948 -0.001144 0.442425 
-0.975020 -0.001638 0.350151 
-1.006711 -0.001920 0.255183 
-1.029100 -0.002610 0.158246 
-1.039960 -0.002481 0.060079 
-0.002640 -0.088740 0.996291 
-0.002413 -0.178258 0.983208 
-0.001628 -0.266608 0.961199 
-0.001520 -0.352712 0.929702 
-0.000279 -0.436664 0.890590 
0.000052 -0.515342 0.843371 
-0.000038 -0.590166 0.789238 
0.001068 -0.660141 0.727732 
0.000907 -0.722564 0.658450 
0.001574 -0.779088 0.583342 
0.003305 -0.829212 0.501984 
0.004085 -0.871887 0.416416 
0.004186 -0.906217 0.326999 
0.005003 -0.932239 0.233684 
0.005172 -0.950135 0.137761 
0.808860 0.426392 0.443806 
0.359561 0.348727 0.864352 
0.353384 0.815958 0.398554 
0.937929 0.310049 0.288712 
0.978473 0.258580 0.206488 
1.002264 0.199240 0.178998 
1.017119 0.190345 0.095976 
0.540717 0.755045 0.334616 
0.552131 0.299409 0.786447 
0.294916 0.636343 0.693375 
0.753497 0.603237 0.282478 
0.765795 0.270085 0.611103 
0.782843 0.607457 0.182354 
0.807304 0.173092 0.602239 
0.221633 0.498601 0.827314 
0.221143 0.769927 0.557903 
0.872625 0.488168 0.194348 
0.877989 0.196813 0.493639 
0.144021 0.390111 0.904787 
0.144167 0.848239 0.448798 
0.423653 0.711100 0.533912 
0.427188 0.484241 0.759338 
0.436151 0.853807 0.179063 
0.451808 0.143854 0.886487 
0.926529 0.417618 0.131589 
0.940156 0.169378 0.388689 
0.095914 0.321019 0.938339 
0.097580 0.883567 0.378295 
0.290542 0.911536 0.145896 
0.302213 0.104182 0.950033 
0.973766 0.337094 0.058088 
0.983819 0.089342 0.316342 
0.595910 0.550482 0.584400 
0.089767 0.261022 0.959447 
0.091061 0.905284 0.315225 
0.231408 0.928199 0.120857 
0.239750 0.079565 0.968524 
1.015892 0.104723 0.194780 
1.000880 0.260796 0.037464 
1.032333 0.092821 0.099043 
0.689017 0.402811 0.617682 
0.682838 0.596558 0.426672 
0.550138 0.680531 0.466269 
0.556744 0.429512 0.716252 
0.798502 0.524766 0.333418 
0.800868 0.327227 0.533744 
0.742225 0.476477 0.493134 
0.406970 0.606482 0.669635 
0.350176 0.172839 0.923578 
0.338399 0.882720 0.215835 
0.405650 0.835825 0.297902 
0.416580 0.255009 0.876941 
0.354366 0.682092 0.619477 
0.354175 0.563200 0.735063 
0.490268 0.731579 0.443078 
0.497199 0.400782 0.771099 
0.289119 0.435156 0.846223 
0.286682 0.792268 0.492234 
0.494050 0.804940 0.265150 
0.507563 0.228819 0.837368 
0.322913 0.498320 0.795920 
0.321893 0.742414 0.555509 
0.243501 0.378561 0.888393 
0.240617 0.833531 0.435122 
0.886395 0.417165 0.291113 
0.907998 0.259464 0.402921 
0.458009 0.324994 0.830959 
0.448740 0.791730 0.368912 
0.390013 0.769771 0.465010 
0.395587 0.414439 0.817498 
0.109964 0.534223 0.824710 
0.111458 0.763090 0.596768 
0.222397 0.710432 0.637475 
0.222095 0.577486 0.769790 
0.081500 0.455958 0.877879 
0.082836 0.817908 0.517572 
0.683498 0.284051 0.689807 
0.670429 0.671453 0.305583 
0.511504 0.831513 0.092524 
0.532645 0.068635 0.854143 
0.190126 0.868702 0.384742 
0.191526 0.327888 0.922042 
0.228106 0.911384 0.223142 
0.234514 0.174985 0.956723 
0.457292 0.639416 0.601596 
0.446392 0.539112 0.708292 
0.281270 0.274808 0.918869 
0.274726 0.870534 0.326063 
0.977390 0.194102 0.277941 
0.957462 0.339035 0.168155 
0.182588 0.452495 0.865829 
0.180995 0.806589 0.511577 
0.433692 0.868060 0.082964 
0.454153 0.053513 0.897263 
0.363882 0.891375 0.115057 
0.380889 0.079165 0.926210 
0.063295 0.393765 0.911050 
0.065950 0.852112 0.453416 
0.116762 0.925479 0.234858 
0.116096 0.183953 0.975083 
0.167722 0.257456 0.950107 
0.165402 0.898432 0.312052 
0.646493 0.471146 0.609851 
0.643186 0.581893 0.499431 
0.576705 0.622476 0.519650 
0.581372 0.484672 0.658217 
0.773779 0.402627 0.518608 
0.778443 0.499426 0.412441 
0.677302 0.512905 0.537945 
0.577787 0.763577 0.241713 
0.594112 0.214556 0.788113 
0.846901 0.483353 0.288471 
0.854284 0.293137 0.476145 
0.710860 0.543853 0.459566 
0.714396 0.438619 0.563615 
0.822591 0.361097 0.477552 
0.744785 0.363157 0.584086 
0.737592 0.570417 0.379195 
0.505433 0.668620 0.528538 
0.509196 0.484757 0.710273 
0.875054 0.358073 0.388971 
0.835320 0.454232 0.362319 
0.944872 0.229896 0.343655 
0.993813 0.257734 0.121609 
0.595481 0.696372 0.382407 
0.604818 0.351134 0.724598 
0.686643 0.346915 0.656381 
0.676412 0.636023 0.370078 
0.533336 0.607761 0.579398 
0.506466 0.561662 0.649204 
0.186062 0.651567 0.712775 
0.622736 0.638074 0.446934 
0.629843 0.416686 0.666249 
0.102907 0.622043 0.757861 
0.104639 0.693731 0.686238 
0.709967 0.666755 0.223241 
0.726322 0.208381 0.679009 
1.038967 0.078719 0.023606 
0.568530 0.142986 0.821919 
0.548718 0.799123 0.169096 
0.789166 0.079710 0.643187 
0.765212 0.646394 0.082244 
0.828531 0.251822 0.541620 
0.815470 0.544945 0.245786 
0.830288 0.570809 0.099570 
0.851340 0.089684 0.564844 
0.146066 0.085113 0.985605 
0.143405 0.942567 0.128754 
0.952028 0.072975 0.397907 
0.932808 0.422422 0.049622 
0.891279 0.490345 0.072932 
0.910347 0.089293 0.473747 
0.918425 0.399819 0.216357 
0.646226 0.247510 0.737994 
0.630649 0.716069 0.270820 
0.064728 0.952642 0.099684 
0.062732 0.057182 0.996693 
0.063998 0.120132 0.990950 
0.066351 0.943487 0.167087 
0.689723 0.715312 0.079257 
0.713627 0.069914 0.720515 
0.604269 0.777479 0.087532 
0.627983 0.069835 0.791717 
0.734228 0.666711 0.139902 
0.753742 0.131137 0.671493 
0.644658 0.734384 0.173416 
0.665232 0.154821 0.750725 
0.827211 0.555297 0.181413 
-0.474798 0.432085 0.769840 
-0.382068 0.822047 0.361978 
-0.906114 0.362466 0.315654 
-0.356395 0.299875 0.887809 
-0.271999 0.260180 0.927153 
-0.231982 0.192344 0.955195 
-0.175507 0.125344 0.978502 
-0.331395 0.749007 0.539257 
-0.837584 0.307491 0.499625 
-0.702024 0.657633 0.277622 
-0.302760 0.589455 0.735080 
-0.670095 0.271041 0.710075 
-0.194035 0.582453 0.772896 
-0.684079 0.178036 0.730436 
-0.545331 0.789366 0.224199 
-0.850307 0.521725 0.195011 
-0.220799 0.484723 0.836576 
-0.532845 0.205347 0.833757 
-0.420785 0.864024 0.160996 
-0.933143 0.411318 0.112519 
-0.787982 0.498701 0.391158 
-0.535516 0.721638 0.415127 
-0.154729 0.843206 0.451995 
-0.943111 0.149576 0.394653 
-0.173347 0.410917 0.889506 
-0.454687 0.151573 0.887614 
-0.344932 0.898386 0.120776 
-0.970346 0.339337 0.063104 
-0.110575 0.903496 0.317022 
-1.002068 0.109288 0.248423 
-0.378826 0.086835 0.927859 
-0.099461 0.329904 0.935488 
-0.612624 0.555924 0.564448 
-0.278600 0.916610 0.117875 
-0.995912 0.275798 0.053959 
-0.083183 0.922659 0.260717 
-1.018963 0.082215 0.189066 
-0.252909 0.102231 0.965204 
-0.117723 0.209589 0.970631 
-0.171238 0.056883 0.985328 
-0.449224 0.591254 0.658755 
-0.664586 0.406283 0.643500 
-0.474810 0.681941 0.535384 
-0.756590 0.437799 0.513067 
-0.584314 0.324593 0.755316 
-0.367253 0.517564 0.765754 
-0.531663 0.473498 0.704250 
-0.672393 0.632577 0.385267 
-0.186495 0.878581 0.359944 
-0.974965 0.180928 0.297163 
-0.277670 0.832413 0.416863 
-0.925937 0.264046 0.364893 
[...]
POINT_DATA 2044
SCALARS u float 1
LOOKUP_TABLE default
4.134588
4.020686
3.986565
4.090630
0.223345
4.113823
3.905728
3.529533
3.046565
2.499931
2.020518
1.581165
1.329426
1.482617
1.910321
2.461920
3.036374
3.477911
3.781152
4.019382
3.935210
3.738132
3.347763
2.853000
2.291752
1.666601
1.103760
0.885118
1.184407
1.719908
2.325705
2.910656
3.380152
3.711274
3.907482
3.904724
3.710697
3.355316
2.925516
2.417609
1.849443
1.404534
1.187996
1.417894
1.837591
2.406645
2.948225
3.418695
3.781381
3.955698
4.019439
3.837455
3.513361
3.204779
2.667789
2.236263
1.889199
1.740667
1.855711
2.176055
2.619868
3.087642
3.444211
3.874507
4.078561
4.303151
4.445350
4.462885
4.392648
4.270665
4.066468
3.821366
3.565622
3.244159
2.850284
2.381917
1.931674
1.441547
0.932952
0.393378
0.485076
1.005591
1.425945
1.882292
2.293796
2.740820
3.117662
3.484668
3.828636
4.083243
4.234919
4.331168
4.377439
4.361493
4.214771
0.732559
1.279345
1.790324
2.220960
2.611964
3.046034
3.351349
3.618010
3.935474
4.120103
4.290299
4.304294
4.325619
4.317290
4.169844
0.689189
1.219315
1.711658
2.170134
2.541402
2.978119
3.344347
3.642200
3.968078
4.210339
4.332538
4.409214
4.455037
4.416905
4.280507
3.348658
2.332007
3.941525
3.857391
3.992292
4.231911
4.184774
3.206231
2.807124
3.438702
2.820196
3.473615
2.589887
3.711866
2.715153
3.975544
3.026218
4.006029
2.090536
4.217229
3.592548
2.942993
3.393298
2.181503
3.200682
4.187022
1.708648
4.358675
3.802326
1.515269
3.498391
4.436002
3.225672
1.381472
4.434719
3.950660
1.144088
4.448176
3.754729
4.349146
3.253966
3.089458
3.308545
3.001690
3.092952
3.549809
3.281708
3.390123
1.794987
3.833056
3.704461
2.214922
3.539467
3.196492
3.482440
2.839636
2.584218
3.989282
3.327609
2.516645
2.924827
3.767693
2.246764
4.161459
3.455039
3.940093
2.552080
3.542237
3.746792
2.692145
2.865237
3.992942
3.769902
3.114289
2.428259
4.178958
3.201850
2.878290
2.756424
2.486306
4.234955
1.900468
4.110981
1.408677
3.420224
3.182680
1.837605
4.098595
4.249402
3.605779
2.465992
4.140424
3.175948
2.163573
3.557998
1.834170
2.082712
4.339291
4.345051
1.073606
1.580303
4.313068
3.175797
3.174749
3.250915
3.126009
3.396829
3.215122
3.236414
2.908137
2.855635
3.204642
3.734985
3.164648
3.284301
3.502621
3.368202
3.053144
3.395452
3.066119
3.621593
3.331625
4.126839
3.889777
3.120388
3.004515
3.259727
2.990851
3.295982
3.260583
3.477932
3.147999
3.170478
3.292662
3.642705
2.679865
3.347959
4.245190
2.712904
2.799418
3.656248
2.157000
3.772278
2.854760
2.415287
3.941033
0.712582
4.117099
4.369125
2.991258
2.706461
4.181186
3.414137
3.067945
2.876059
4.164883
0.295958
0.643037
4.273093
2.143976
3.335949
2.380214
2.960820
2.360304
3.458532
2.562416
3.148900
2.735589
2.793434
3.427304
3.531202
2.326337
1.899262
1.570542
1.202585
3.466621
3.629766
2.228891
3.121182
3.282425
3.067257
3.348520
2.495390
2.586141
2.688948
2.778521
3.006544
3.029625
2.866118
2.782834
4.049807
4.140853
2.248023
2.453785
3.292208
3.274177
4.255481
4.277598
2.058835
1.806315
2.847185
3.652217
3.590005
4.253286
4.277055
1.480981
1.250330
1.067054
2.996944
3.133231
2.981932
3.141494
2.994586
2.911203
2.920794
2.547206
4.054801
4.124101
3.805787
3.855195
2.460818
2.527789
3.095284
3.276467
2.924180
3.007213
3.748199
3.871651
2.713020
2.630583
3.209173
3.179090
2.426806
2.624074
3.611306
3.519681
3.312649
3.110701
2.101205
2.036496
2.199174
2.155250
2.481886
2.507064
3.423961
3.254724
4.171935
4.246031
3.390265
3.385021
4.035122
4.036035
2.681120
2.663613
3.772799
3.727479
2.037993
2.778506
2.708860
4.209790
4.304038
4.228009
4.291735
2.864744
2.873742
3.927462
3.890489
3.697683
3.710525
2.892116
2.992767
2.962970
2.851580
2.864746
2.898638
2.931059
3.648639
3.870259
2.836668
2.709829
3.010495
2.950557
2.772230
3.030088
3.068285
1.991377
2.818022
2.972160
2.620523
2.790799
1.618271
3.227182
3.374096
3.142106
3.281025
2.848514
2.736820
1.920497
3.127975
3.010924
1.688890
1.667909
3.536386
3.392528
4.075576
3.932800
3.290197
3.445643
2.886085
3.084960
3.123931
2.951649
4.154936
4.149622
2.440578
2.152386
2.515487
2.867661
3.630815
3.433965
4.062498
4.117845
3.966364
4.034155
2.427326
3.598447
3.797802
3.908173
4.088651
3.247377
3.358329
3.582028
3.849052
3.675473
0.862308
0.537467
2.794785
3.499013
3.358053
2.374459
1.975617
1.651674
3.588593
3.540951
2.038610
3.179076
3.209925
3.207757
3.340251
2.431699
2.345082
2.776050
2.772610
3.005511
2.932621
2.707548
2.841749
4.146385
4.211522
2.471358
2.433030
3.280414
3.213432
4.232089
4.316194
2.055214
2.129414
2.751089
3.617911
3.580963
4.247630
4.339882
1.722266
1.754248
2.999359
2.974129
3.030040
2.971553
2.889861
2.976027
2.806703
2.434153
4.154622
4.141410
3.901717
3.829367
2.443046
2.307828
3.152638
3.102344
2.929789
2.792574
3.882343
3.893659
2.509950
2.676705
3.117930
3.229155
2.547555
2.646360
3.508307
3.592816
3.004274
3.156953
1.854318
1.943079
1.906539
1.999908
2.439202
2.337146
3.398453
3.361548
4.192608
4.215248
3.422845
3.326983
4.128865
4.146095
2.592803
2.646968
3.721203
3.829021
2.099416
2.096314
2.582733
2.651370
4.258190
4.338376
4.235964
4.347778
2.759473
2.849749
3.888309
3.905818
3.692210
3.724256
2.836869
2.835565
2.806093
2.853642
2.841821
2.847941
2.804704
3.868117
3.779500
2.835132
2.789496
2.865079
2.866520
2.857919
2.977953
2.986716
2.845163
2.793680
2.627716
2.710219
3.307499
3.295309
3.161094
3.170150
2.378050
2.667744
2.646375
1.641236
2.997198
3.025308
1.376254
1.437995
3.470690
3.504518
4.029142
4.099810
3.432832
3.439631
2.948572
3.067845
3.103965
3.090524
4.182526
4.250779
2.357457
2.452682
2.797093
2.811501
3.608504
3.593031
4.175458
4.093217
3.988902
3.993479
2.474860
3.761149
3.824725
4.041400
4.001217
3.193114
3.550601
3.545891
3.818142
3.834559
1.353149
1.343417
0.946621
1.336569
3.192879
3.906180
2.443740
3.792477
4.038179
4.188604
4.264406
4.274561
3.009133
2.794098
3.515238
2.539204
3.510088
2.266380
3.645965
4.075891
2.912123
2.743852
3.941546
4.397938
2.363854
2.949631
3.573669
3.200300
2.227483
4.224251
3.191807
4.431429
1.972462
3.737774
1.527283
3.389752
4.406798
3.073091
4.464147
1.651034
3.877043
1.193352
3.890991
4.400859
2.855663
3.126225
3.179206
2.914318
3.467020
2.843402
3.056372
3.406015
3.673484
1.907321
3.589716
2.312031
3.647263
3.205699
3.375406
2.793278
4.006877
2.673343
3.111581
2.608351
2.948251
3.867807
2.394299
4.175236
3.245953
3.744132
2.567322
3.519109
2.680118
3.751437
3.073352
4.146481
3.227181
3.863828
4.386800
2.674729
3.184759
2.518939
2.547495
2.523482
4.306191
2.117503
4.121895
1.496406
3.147016
3.458855
2.039560
4.090162
4.209089
3.697659
2.695268
4.259048
2.973133
2.132487
3.362902
1.849330
2.331497
4.416164
4.335941
1.282339
1.714196
4.306647
2.960812
3.046554
3.031513
3.145894
2.965203
3.273991
3.030694
2.614794
2.908800
3.649356
2.958108
3.118728
2.928089
3.048282
2.811015
3.241092
3.309792
2.988874
3.368129
3.451182
2.912088
2.957327
2.749355
3.198380
3.469320
3.096137
3.289346
3.692931
3.082974
2.956769
3.497844
3.874631
3.371854
2.242115
2.756795
2.558640
1.828768
3.753423
2.681761
3.717812
3.928510
2.157860
4.153343
0.844858
4.305374
2.982664
2.589845
4.165988
3.073443
2.508253
0.476222
4.145761
0.863645
4.323796
3.998701
1.756943
3.433568
2.047370
2.996894
3.957216
1.956190
3.525453
3.167498
2.193219
4.015184
4.438384
0.145226
2.287347
2.283160
2.233387
2.163455
1.933347
2.102081
2.054379
1.848825
2.983463
2.329397
1.358592
1.347170
1.205955
3.160210
2.241937
1.300059
2.909369
3.117582
2.184635
2.308705
1.160908
3.210891
3.221361
3.175625
3.270724
2.437249
1.882283
1.614337
2.138948
2.850842
2.141352
2.153609
2.715307
1.964564
1.636170
1.411663
1.752223
2.255735
1.848448
2.252426
2.107357
1.190436
1.953660
2.922449
3.502932
3.573779
2.957086
1.590672
3.646766
0.719685
2.788869
3.146436
3.622820
2.957881
2.240899
1.536418
0.847145
2.567757
2.990656
2.819211
2.570634
0.815023
3.509076
2.155525
1.963105
2.015710
2.459709
0.751565
2.805865
2.843364
3.317023
2.000899
2.056897
2.965229
2.581003
2.540332
1.939416
1.883967
1.717529
1.729387
1.639047
1.566319
2.653791
1.870085
2.255551
2.543061
1.842026
1.800200
2.494063
0.584461
2.035524
2.487016
3.461613
1.598834
2.111603
2.044699
0.933284
3.697536
1.744955
1.918241
3.386612
1.415734
3.436249
1.769394
1.178152
2.353636
3.739719
1.995266
2.651146
3.631241
1.803596
2.193307
2.561228
1.602857
3.556151
3.455716
1.872923
2.673876
1.829626
2.180256
1.172312
1.426238
3.775762
3.198062
2.041484
0.904586
2.317708
1.981751
2.089902
2.680442
2.631639
3.708917
2.541538
1.976979
2.080525
2.064060
1.604703
2.787208
3.230491
2.839016
2.781247
2.094221
1.240343
1.665093
2.810046
2.388283
1.906443
1.251498
1.849602
2.769019
3.086669
2.121306
2.126115
1.716239
1.778202
1.154089
1.103665
3.252224
3.807378
0.687329
3.305167
2.884328
2.358064
2.918023
2.848498
2.342305
2.892986
2.604161
2.058494
2.236675
2.914490
1.784992
1.115120
2.807365
1.720812
1.619306
1.811686
2.091371
2.543178
1.993678
3.754397
2.541446
3.262153
3.178862
3.872767
3.363384
0.417032
2.260398
3.209874
3.324216
1.762696
2.133936
0.606116
1.565683
1.254430
2.210164
2.779004
2.325401
2.867503
2.215221
1.844434
3.064131
1.865016
0.782747
0.480628
2.129302
3.495221
3.275873
2.409113
3.827345
3.093968
2.347707
3.419109
2.473007
2.681208
1.687908
3.213493
1.581535
1.502874
2.674560
2.171296
2.336094
2.785583
2.204700
3.579297
3.222694
1.989998
1.484865
0.321652
3.491017
2.119433
3.660766
3.097166
3.920454
2.329894
3.059853
3.916625
2.992461
2.380493
2.192348
3.528565
1.988865
3.189930
1.903381
3.503739
2.318595
2.564217
3.521670
1.994622
1.918406
2.411043
1.490021
1.756619
1.965907
2.728016
1.845035
1.945429
1.454317
2.125856
1.945581
3.175828
3.005618
0.991539
2.313692
1.980133
0.985088
1.782242
2.673927
1.523096
1.216740
3.520062
2.525457
2.596263
2.281476
1.627050
1.262277
1.866519
3.106935
1.881092
1.688995
2.483983
3.006640
2.469244
2.991979
2.530739
1.946583
3.687320
0.352249
1.044800
2.072982
1.994644
1.953821
2.266637
3.738871
1.614764
2.102108
2.680325
1.731818
1.746431
2.424985
1.576341
1.650701
1.482095
3.888268
3.861873
2.334940
2.531372
1.054789
3.165514
1.881421
2.563940
1.856787
0.922650
1.935213
1.512810
1.987434
0.816328
3.439679
2.301365
2.115290
2.573566
2.120445
1.952312
3.355413
1.823009
2.379972
1.905458
2.852512
2.422488
3.124534
2.989791
1.845116
3.048557
3.486672
2.306301
1.541321
1.425294
2.027296
3.475589
2.465073
1.862091
2.132856
3.343276
2.349424
1.941266
1.585013
2.508460
1.942511
2.196856
1.628788
3.245990
2.821520
2.608773
2.595406
1.997207
2.862746
1.228269
2.177993
1.921817
1.479957
1.880890
2.099870
1.585607
3.866070
1.932661
0.552401
1.660434
1.801854
2.079318
2.534290
1.582342
3.265506
2.647492
3.535843
3.977174
2.611720
3.560042
2.833996
3.253712
2.966468
2.206254
2.425415
1.877655
3.499714
2.696421
3.221779
2.287522
1.473105
1.619542
2.089718
1.744754
2.266049
2.390145
0.941345
1.140267
3.803457
1.186118
0.789028
3.627806
2.169112
3.018002
3.167173
1.082599
1.039850
2.145980
3.980989
3.903631
2.167819
3.207709
3.181661
2.423798
1.529026
3.339274
3.286356
4.099469
3.761027
3.868557
3.818042
3.120864
2.302140
2.277163
2.151644
2.428188
3.282826
3.266362
2.621847
4.100190
3.980307
1.519714
2.118712
1.565215
0.804911
0.779880
1.600873
0.717185
0.655280
0.735844
1.655386
1.657689
0.782591
1.626055
2.533742
1.666136
1.674361
1.571285
1.615408
1.963477
0.851740
0.899648
1.526211
0.718703
0.789317
0.763550
1.544547
2.481630
1.657621
0.724775
0.637194
2.698708
2.475518
2.634836
2.484587
2.539571
2.352302
3.126770
2.485573
2.886240
2.432666
3.087592
2.303193
2.730332
2.709174
2.619731
2.547126
2.531144
2.747502
2.613976
2.493474
2.512020
2.473085
2.522953
3.110450
3.002468
3.320408
2.797995
2.593560
2.957656
2.746963
2.509424
3.192014
4.034444
3.585910
2.493658
3.242686
3.214010
3.778341
3.448592
1.432493
3.979049
3.834386
3.479226
2.357518
1.523639
2.506584
2.313106
1.921082
2.857279
2.986149
3.061274
2.954596
2.857124
2.482666
2.489855
2.587190
2.810765
2.990044
2.688080
2.718802
3.073430
3.053369
1.416022
1.637397
2.830814
2.855337
2.241150
2.001010
1.604746
1.659901
1.982131
1.607212
1.693723
1.611723
2.217634
4.080400
3.577481
3.678946
3.941833
2.596418
1.452036
1.027513
1.096445
0.396948
2.459808
1.233473
1.560539
1.582903
3.946591
3.960529
3.214099
2.362925
3.301831
4.191221
3.241162
2.374332
3.108069
3.350284
2.470297
4.085062
2.899445
2.598355
2.386965
2.561298
2.521230
1.999231
2.441079
3.162183
2.716931
3.181124
3.851000
3.510102
2.589402
2.460171
4.041651
3.670179
3.053686
2.377250
1.863187
4.064780
3.483808
1.690418
3.771327
3.922950
2.674420
3.036133
2.763557
2.913062
3.193524
3.136802
3.087496
3.355118
3.719664
3.508912
2.933959
3.823945
3.550216
3.984117
3.687833
2.769020
0.260088
0.285213
1.631668
0.698051
0.704208
0.760325
0.769542
3.208351
0.688634
2.463062
3.817418
3.851460
2.776974
2.387024
3.037070
3.132598
2.788874
2.521397
3.211481
3.295480
3.294081
2.514100
3.123854
3.127525
4.098165
2.351274
2.939357
2.339302
2.565240
2.560291
2.550361
2.460161
1.998973
1.941035
2.580959
2.729649
2.520047
2.670558
3.719044
4.142636
3.824920
1.577240
3.991407
1.840254
2.301202
1.688956
1.826665
1.789862
2.300489
3.816385
2.618786
2.513345
1.941067
2.339007
3.881531
1.587309
2.683553
2.680624
2.672193
2.851851
2.738769
3.810195
2.691791
2.955223
2.454937
2.948199
2.823236
3.043896
3.125177
2.836765
2.863304
3.116304
2.663557
2.727287
2.633566
0.338150
4.060490
3.977923
3.722044
4.079025
3.774507
4.199758
3.928374
4.191929
1.012717
0.830277
1.304033
1.317639
0.860259
0.452607
0.729318
3.531294
3.556084
3.904240
3.833671
2.537324
2.922762
2.340588
2.378395
2.611693
2.990245
2.705680
2.455808
3.270842
3.423329
2.889453
3.219841
2.668845
2.478273
2.336183
2.325637
3.214379
3.209438
3.149150
2.528033
3.857835
4.039707
3.830829
3.456965
3.952988
2.750747
2.777506
2.900927
2.774976
2.890987
2.790235
2.966573
3.059183
3.043057
2.376520
2.825348
2.799505
2.298723
3.908003
2.727817
3.116217
3.552579
3.145645
3.534824
2.715153
3.088157
1.130747
1.749441
0.692906
2.425089
2.557752
1.479288
1.489994
1.491695
1.832745
1.503404
2.453641
2.106712
2.269413
2.325299
1.495150
1.821362
1.636979
1.794536
0.646530
1.571655
2.352544
2.087405
2.356767
1.948105
2.067552
0.684092
1.236110
0.649819
0.694871
2.042516
2.149708
2.154815
1.588038
1.610538
2.012655
1.155702
3.621154
2.627802
2.286642
2.442757
2.648537
2.396363
1.611343
1.240871
1.311822
1.652349
1.726914
1.928105
2.083474
2.200966
2.275061
2.127008
3.764662
2.349603
1.944919
1.938398
2.124134
2.863353
3.010055
2.673731
2.553502
2.896380
2.836119
2.345088
2.789494
2.995088
2.698691
2.652444
2.304159
2.262112
2.766022
2.403595
2.733554
2.352685
2.309230
1.966523
2.487843
2.548546
2.673143
2.840563
2.344198
2.324665
2.733516
2.331937
2.068939
2.316638
1.467305
3.685994
3.881720
0.877547
2.519818
1.602776
1.579586
2.313196
2.312798
2.652638
1.579855
3.421061
3.507147
3.625566
2.240293
3.068320
1.153900
1.257343
1.328534
0.737855
3.183688
3.355195
3.363272
3.165485
3.028382
3.199251
2.098843
2.157119
2.381317
2.490488
0.745184
3.855645
3.228087
3.404410
3.150251
1.958289
1.532845
2.080368
0.664513
2.788326
2.931338
3.798735
2.031939
3.376141
3.087865
3.435632
0.666286
1.641455
1.763460
2.541056
2.790909
2.864705
2.757676
2.809140
2.018066
3.058351
1.491334
1.916507
1.635887
1.092721
2.633828
2.901942
3.091515
2.180955
2.408800
2.564345
2.771206
1.816001
1.917885
2.128117
2.152838
2.353343
3.162868
1.936016
2.361001
2.269807
2.349034
3.898776
4.094726
3.384352
0.359601
2.305302
1.980417
2.407218
2.816935
2.592460
2.423967
2.792736
2.414595
2.835550
1.948912
2.461768
0.728555
0.720119
0.765689
1.163098
1.247608
1.236992
2.645825
2.399774
2.433402
2.009925
2.543249
2.314662
2.950388
2.643930
2.843333
2.184034
2.461673
2.752714
2.058265
1.862417
2.009350
1.706444
1.990942
1.611021
1.502591
1.704049
1.915672
3.327934
2.521839
1.083452
1.065154
1.173292
3.493951
2.328747
1.646299
2.238059
2.470371
2.391303
2.755009
2.362011
3.183737
3.105930
3.258987
3.400721
2.787407
3.215188
3.310378
3.052687
3.289670
2.642376
2.872584
2.804374
3.736333
3.890937
3.183641
2.966323
2.018888
2.116086
2.893388
3.411332
3.337623
2.213392
2.289254
3.486729
3.402069
3.631155
1.548907
1.624651
1.694363
1.993144
1.569389
1.233863
1.700955
1.153802
2.186168
2.106114
2.339102
3.030291
3.629415
3.782201
3.526869
2.155680
2.673882
1.659411
3.514141
2.014274
1.516123
3.537682
1.746406
1.446595
2.700435
2.479789
2.910132
2.717170
2.832547
0.903358
2.447075
2.558307
3.456582
3.621164
3.014485
3.154284
2.261012
3.207267
3.339268
3.214233
3.030178
2.504918
2.764470
2.584124
2.268723
0.288935
0.273042
0.300068
2.177441
2.368356
1.435698
3.071446
3.246456
2.829233
2.691840
2.890685
3.477433
1.950489
3.145339
3.035092
2.689552
2.482441
2.393620
2.476000
2.294214
2.630440
1.974888
1.977911
3.590957
2.865263
0.690649
3.304128
3.111280
3.494584
3.469758
3.616446
2.300894
2.968247
3.172394
2.017205
2.161878
2.522731
2.279645
1.394716
1.218357
1.529206
3.263421
0.674722
2.875137
2.663779
2.824343
2.931937
2.153768
2.038023
2.593393
1.071477
1.183659
2.068373
2.709766
2.887674
3.331413
0.901082
3.450561
3.288943
3.643590
2.612644
0.327322
1.195427
1.275052
2.412194
2.913331
1.757209
1.590871
1.702710
2.165530
1.324623
2.444732
2.583493
2.727157
2.273218
2.435750
3.617043
3.842825
2.263611
2.145619
3.681681
3.826761
2.412013
2.234496
3.528486
2.782568
2.657656
2.519104
3.756056
3.487152
2.856875
2.407719
3.810764
3.072187
3.235325
2.757604
1.782540
1.975502
3.240621
3.705319
3.967982
2.243479
0.948895
1.263945
1.354582
1.000130
1.919237
2.107115
2.414411
1.245958
1.323789
2.822230
2.960181
2.912498
2.228096
2.374535
2.031387
2.479139
2.150256
2.536517
3.078811
2.605055
3.176152
3.620648
3.200752
0.849417
0.854287
1.104881
1.317553
0.415236
0.855250
1.299884
1.301310
1.467792
1.395571
2.263745
2.705957
2.310494
1.889953
2.723413
1.483597
2.357943
2.700271
2.301053
2.006610
2.741467
1.696181
1.446344
1.295043
0.816600
1.077591
1.339099
1.862314
1.398355
1.847197
1.902363
1.525498
2.003088
1.495303
1.342272
1.716153
1.473682
2.004174
1.971478
0.830977
0.401377
1.056983
1.900468
1.862936
2.014193
1.500054
2.270885
2.262165
2.328052
2.418787
3.252489
2.594253
1.896814
1.612258
2.245793
2.222308
1.375808
1.517126
1.418647
1.310559
2.335363
1.837604
1.952219
2.688756
2.663844
2.657274
2.269018
3.094947
3.274912
2.665854
2.669726
2.631675
2.271069
2.486210
2.349811
2.669222
2.646877
2.871082
2.884708
3.192900
2.538224
2.125162
2.770207
2.481363
2.609197
2.690023
3.053860
2.665114
2.596651
2.636450
2.325828
3.211594
2.907767
