# vtk DataFile Version 2.0
Unstructured Grid Example
ASCII
DATASET UNSTRUCTURED_GRID
POINTS 2044 float
0.854969 0.009806 0.146663 
-0.013660 1.142415 -0.140906 
-0.854647 0.008369 0.135810 
-0.017816 -1.145897 -0.141898 
0.009910 -0.005100 0.999539 
0.852544 -0.093619 0.147809 
0.843853 -0.193974 0.138919 
0.837507 -0.292602 0.129629 
0.816796 -0.388430 0.107942 
0.792478 -0.484790 0.086077 
0.755752 -0.578895 0.062498 
0.710657 -0.668091 0.034823 
0.659492 -0.752625 0.008327 
0.600204 -0.835711 -0.019563 
0.529825 -0.909659 -0.048232 
0.451578 -0.977145 -0.075220 
0.365661 -1.039056 -0.097167 
0.273884 -1.082033 -0.119390 
0.180336 -1.116341 -0.130648 
0.080913 -1.139250 -0.138744 
-0.119693 -1.134329 -0.137099 
-0.215474 -1.115603 -0.127530 
-0.308997 -1.078341 -0.113433 
-0.395341 -1.028973 -0.095384 
-0.481495 -0.969208 -0.073346 
-0.555010 -0.895508 -0.053169 
-0.621087 -0.819412 -0.026621 
-0.677507 -0.739878 0.002015 
-0.726281 -0.654123 0.030433 
-0.763920 -0.563904 0.052402 
-0.795489 -0.468861 0.077554 
-0.818440 -0.377304 0.099928 
-0.834383 -0.280798 0.115709 
-0.847799 -0.185781 0.128779 
-0.853514 -0.089271 0.133932 
-0.851084 0.103610 0.131280 
-0.843179 0.199158 0.124069 
-0.830034 0.298095 0.109158 
-0.810721 0.394437 0.091679 
-0.784671 0.484483 0.070357 
-0.755689 0.575979 0.048709 
-0.713406 0.663845 0.022373 
-0.665002 0.748739 -0.003775 
-0.607051 0.831919 -0.028227 
-0.542359 0.906839 -0.050672 
-0.470274 0.975570 -0.075337 
-0.387513 1.035790 -0.095570 
-0.302474 1.082724 -0.114814 
-0.209408 1.116246 -0.130811 
-0.111688 1.137106 -0.136754 
0.084699 1.141067 -0.137257 
0.178305 1.119126 -0.131575 
0.270602 1.083689 -0.119737 
0.361668 1.044678 -0.102881 
0.444969 0.990335 -0.072804 
0.516160 0.922094 -0.052037 
0.585645 0.848974 -0.027488 
0.645387 0.768316 0.001284 
0.695921 0.679011 0.025616 
0.743155 0.590916 0.052558 
0.780562 0.498240 0.078270 
0.806351 0.397646 0.098707 
0.831854 0.302255 0.117471 
0.843833 0.204379 0.136390 
0.848809 0.107582 0.141333 
0.834009 0.011213 0.239738 
0.807384 0.011058 0.333295 
0.777003 0.007849 0.421592 
0.740717 0.008582 0.503129 
0.698831 0.005739 0.580660 
0.652706 0.005134 0.651820 
0.601727 0.002371 0.718541 
0.542817 -0.000179 0.775818 
0.483271 0.002886 0.831366 
0.418659 0.002140 0.870394 
0.356120 0.000425 0.911296 
0.288159 -0.001200 0.943139 
0.219340 -0.000408 0.969190 
0.148864 -0.003692 0.985324 
0.078857 -0.004327 0.995555 
0.008997 0.120463 0.993722 
0.009671 0.244236 0.977110 
0.006821 0.360050 0.944367 
0.006237 0.474261 0.903578 
0.003941 0.581756 0.851437 
0.001717 0.686746 0.792385 
-0.001556 0.780641 0.719590 
-0.007938 0.868354 0.642107 
-0.008885 0.945801 0.552984 
-0.010459 1.012718 0.462686 
-0.010228 1.065467 0.366797 
-0.012972 1.106675 0.267753 
-0.014466 1.135461 0.164915 
-0.014109 1.153051 0.062522 
-0.013806 1.154199 -0.039220 
-0.062028 -0.006558 0.994610 
-0.131546 -0.004380 0.985832 
-0.201443 -0.004214 0.966128 
-0.273687 -0.003571 0.944147 
-0.344638 -0.000816 0.912726 
-0.409007 -0.001030 0.872231 
-0.476139 0.004839 0.827302 
-0.540219 0.005788 0.776143 
-0.593916 0.004436 0.715249 
-0.647486 0.003950 0.647638 
-0.693918 0.004054 0.574113 
-0.742564 0.005806 0.498025 
-0.780482 0.006808 0.414735 
-0.809489 0.009252 0.325720 
-0.836438 0.008797 0.232526 
0.009360 -0.130907 0.991262 
0.008555 -0.254768 0.972197 
0.005773 -0.374228 0.941841 
0.005391 -0.488946 0.903236 
0.000991 -0.594542 0.851186 
-0.000184 -0.698196 0.789273 
0.000136 -0.791200 0.715478 
-0.003786 -0.873621 0.633980 
-0.003216 -0.951867 0.549101 
-0.005581 -1.017186 0.457106 
-0.011718 -1.068798 0.362951 
-0.014484 -1.108216 0.263088 
-0.014841 -1.136778 0.160115 
-0.017737 -1.152902 0.058257 
-0.018338 -1.154907 -0.042893 
0.625929 0.516406 0.510192 
0.263959 0.463355 0.860299 
0.285861 1.031878 0.286693 
0.730892 0.367261 0.410638 
0.773550 0.300855 0.353336 
0.786192 0.231637 0.339272 
0.809884 0.216726 0.263772 
0.443101 0.924018 0.270858 
0.402633 0.395682 0.812684 
0.215987 0.831717 0.629514 
0.615383 0.718123 0.300755 
0.571782 0.344692 0.690234 
0.652310 0.706224 0.208923 
0.594297 0.220971 0.696170 
0.166292 0.659200 0.790306 
0.168030 0.993769 0.448946 
0.711326 0.562259 0.272062 
0.655071 0.248059 0.609730 
0.108792 0.515813 0.875196 
0.108276 1.075684 0.307743 
0.331023 0.908443 0.460496 
0.318489 0.636602 0.737418 
0.378847 1.030372 0.066153 
0.323337 0.190984 0.914505 
0.759563 0.470371 0.238078 
0.713733 0.208000 0.526949 
0.075969 0.427066 0.920297 
0.070061 1.114487 0.223998 
0.254848 1.098197 -0.006280 
0.213467 0.141615 0.961705 
0.797384 0.367252 0.192835 
0.747273 0.111484 0.472010 
0.454293 0.700775 0.580518 
0.068878 0.345785 0.945191 
0.064288 1.137223 0.153614 
0.201790 1.121068 -0.040120 
0.172214 0.106280 0.978099 
0.790502 0.128492 0.367277 
0.820420 0.286165 0.194277 
0.819982 0.111328 0.278245 
0.518425 0.515138 0.658808 
0.540330 0.733702 0.430540 
0.434019 0.852516 0.423648 
0.410599 0.553969 0.725870 
0.636549 0.628833 0.379913 
0.608084 0.414126 0.617084 
0.570931 0.591619 0.532563 
0.306195 0.791451 0.617196 
0.251103 0.229892 0.935374 
0.292859 1.080235 0.077451 
0.338880 1.032465 0.183287 
0.300127 0.335364 0.886689 
0.264934 0.875372 0.541973 
0.265612 0.741501 0.687567 
0.390128 0.919173 0.375990 
0.365556 0.525947 0.779058 
0.216296 0.581686 0.821620 
0.224938 1.012912 0.379318 
0.416469 0.982159 0.175863 
0.368556 0.304675 0.867187 
0.241377 0.663188 0.760667 
0.244992 0.950368 0.460427 
0.183610 0.507771 0.868054 
0.193833 1.062564 0.307236 
0.700167 0.493756 0.382731 
0.694534 0.315774 0.525025 
0.332005 0.428625 0.840246 
0.364871 0.979328 0.272914 
0.309295 0.974985 0.370526 
0.289533 0.549824 0.805771 
0.083201 0.708132 0.772774 
0.077903 0.991247 0.486384 
0.163045 0.926580 0.547891 
0.164117 0.760579 0.716132 
0.063697 0.605011 0.837371 
0.058961 1.049996 0.386562 
0.505474 0.368274 0.746772 
0.551807 0.811840 0.291954 
0.455810 0.976001 0.007838 
0.380855 0.092534 0.895767 
0.150944 1.093152 0.237715 
0.145982 0.439286 0.904038 
0.191347 1.119199 0.065822 
0.168629 0.236562 0.958455 
0.353731 0.825334 0.549926 
0.332324 0.704621 0.674757 
0.206842 0.365871 0.915349 
0.230044 1.086719 0.184152 
0.754821 0.233979 0.429286 
0.770474 0.384662 0.295662 
0.135819 0.598573 0.828339 
0.141470 1.038368 0.389101 
0.392277 1.029484 -0.033573 
0.319734 0.070842 0.925947 
0.328374 1.069667 -0.022246 
0.268076 0.105007 0.946159 
0.052063 0.523206 0.881007 
0.042649 1.089969 0.311716 
0.088691 1.145781 0.067282 
0.091054 0.247763 0.969913 
0.123248 0.347690 0.939217 
0.131473 1.122427 0.154121 
0.488659 0.598146 0.627435 
0.500384 0.726557 0.497862 
0.450965 0.786745 0.496545 
0.434419 0.620557 0.660026 
0.588898 0.500839 0.577595 
0.606733 0.602754 0.459547 
0.518505 0.644812 0.556036 
0.487958 0.917297 0.187176 
0.430080 0.283445 0.830310 
0.675396 0.574400 0.354808 
0.651331 0.365368 0.580001 
0.554814 0.671641 0.479063 
0.542278 0.553327 0.601576 
0.632810 0.446162 0.561488 
0.560459 0.458149 0.643352 
0.585959 0.691813 0.401286 
0.393476 0.847754 0.477120 
0.380136 0.632345 0.700074 
0.677678 0.430606 0.486722 
0.654459 0.544484 0.430517 
0.722756 0.277572 0.478617 
0.801426 0.292946 0.275814 
0.480054 0.855303 0.345841 
0.446948 0.456718 0.755232 
0.509303 0.446356 0.703565 
0.545575 0.775742 0.364232 
0.410816 0.776641 0.547670 
0.381584 0.726353 0.619731 
0.135395 0.854797 0.637131 
0.492201 0.790515 0.428189 
0.467003 0.535431 0.690622 
0.072064 0.815861 0.680841 
0.069280 0.904229 0.592204 
0.593350 0.792575 0.219580 
0.534163 0.270573 0.750852 
0.837140 0.096022 0.204858 
0.407997 0.191345 0.867359 
0.478237 0.948180 0.098785 
0.577122 0.101784 0.739920 
0.658201 0.731982 0.099522 
0.618129 0.320683 0.638214 
0.668797 0.641592 0.296370 
0.703441 0.641412 0.152880 
0.627061 0.114156 0.677882 
0.109208 0.111847 0.988534 
0.118644 1.141122 -0.042878 
0.713669 0.093480 0.542916 
0.780106 0.462772 0.157964 
0.749372 0.542966 0.157337 
0.678318 0.114531 0.604897 
0.736730 0.462498 0.320509 
0.471551 0.322391 0.787699 
0.526993 0.865143 0.240075 
0.045843 1.151153 -0.077386 
0.052919 0.073302 0.994973 
0.053984 0.159689 0.985446 
0.045641 1.153723 -0.006787 
0.601696 0.819279 0.062299 
0.517117 0.093359 0.800886 
0.533917 0.901384 0.033445 
0.449770 0.095636 0.851009 
0.625326 0.771459 0.142849 
0.553604 0.170149 0.757880 
0.552229 0.865819 0.140230 
0.478693 0.204815 0.808658 
0.683774 0.641394 0.233319 
-0.343335 0.553238 0.764224 
-0.345144 1.010288 0.255392 
-0.712234 0.414643 0.419629 
-0.241819 0.395037 0.885737 
-0.183394 0.343443 0.924865 
-0.152962 0.254504 0.953067 
-0.108670 0.163476 0.975695 
-0.282277 0.945424 0.448278 
-0.631379 0.367027 0.588792 
-0.598846 0.756233 0.277302 
-0.228846 0.766986 0.680680 
-0.481084 0.341303 0.769333 
-0.147426 0.764942 0.717245 
-0.485221 0.225792 0.794816 
-0.493520 0.924849 0.157194 
-0.708785 0.577214 0.260680 
-0.158020 0.641499 0.803052 
-0.366902 0.262035 0.863771 
-0.407062 1.019719 0.048610 
-0.774662 0.440626 0.220482 
-0.635864 0.585335 0.446232 
-0.454809 0.871081 0.361248 
-0.152426 1.067955 0.322673 
-0.713748 0.170697 0.525975 
-0.120887 0.542067 0.861817 
-0.305451 0.196091 0.908402 
-0.342284 1.061949 -0.012178 
-0.806817 0.362119 0.192296 
-0.118950 1.126700 0.160962 
-0.777220 0.123513 0.404177 
-0.250435 0.110041 0.946722 
-0.062792 0.437613 0.914729 
-0.480453 0.681479 0.565840 
-0.283465 1.097069 -0.030777 
-0.815908 0.293398 0.195833 
-0.093452 1.140709 0.097877 
-0.799270 0.096883 0.351913 
-0.163539 0.133560 0.970073 
-0.072385 0.274938 0.961502 
-0.104587 0.071731 0.987621 
-0.350584 0.752506 0.625717 
-0.492511 0.502828 0.679803 
-0.393366 0.847518 0.486328 
-0.582854 0.524589 0.565452 
-0.417226 0.412198 0.789559 
-0.272214 0.674450 0.732577 
-0.395961 0.602181 0.705568 
-0.557768 0.748583 0.383144 
-0.181475 1.094908 0.216471 
-0.753186 0.201213 0.439056 
-0.255019 1.044561 0.299125 
-0.712977 0.303325 0.483381 
[...]
POINT_DATA 2044
SCALARS u float 1
LOOKUP_TABLE default
4.134588
4.020686
3.986565
4.090630
0.223345
4.113823
3.905728
3.529533
3.046565
2.499931
2.020518
1.581165
1.329426
1.482617
1.910321
2.461920
3.036374
3.477911
3.781152
4.019382
3.935210
3.738132
3.347763
2.853000
2.291752
1.666601
1.103760
0.885118
1.184407
1.719908
2.325705
2.910656
3.380152
3.711274
3.907482
3.904724
3.710697
3.355316
2.925516
2.417609
1.849443
1.404534
1.187996
1.417894
1.837591
2.406645
2.948225
3.418695
3.781381
3.955698
4.019439
3.837455
3.513361
3.204779
2.667789
2.236263
1.889199
1.740667
1.855711
2.176055
2.619868
3.087642
3.444211
3.874507
4.078561
4.303151
4.445350
4.462885
4.392648
4.270665
4.066468
3.821366
3.565622
3.244159
2.850284
2.381917
1.931674
1.441547
0.932952
0.393378
0.485076
1.005591
1.425945
1.882292
2.293796
2.740820
3.117662
3.484668
3.828636
4.083243
4.234919
4.331168
4.377439
4.361493
4.214771
0.732559
1.279345
1.790324
2.220960
2.611964
3.046034
3.351349
3.618010
3.935474
4.120103
4.290299
4.304294
4.325619
4.317290
4.169844
0.689189
1.219315
1.711658
2.170134
2.541402
2.978119
3.344347
3.642200
3.968078
4.210339
4.332538
4.409214
4.455037
4.416905
4.280507
3.348658
2.332007
3.941525
3.857391
3.992292
4.231911
4.184774
3.206231
2.807124
3.438702
2.820196
3.473615
2.589887
3.711866
2.715153
3.975544
3.026218
4.006029
2.090536
4.217229
3.592548
2.942993
3.393298
2.181503
3.200682
4.187022
1.708648
4.358675
3.802326
1.515269
3.498391
4.436002
3.225672
1.381472
4.434719
3.950660
1.144088
4.448176
3.754729
4.349146
3.253966
3.089458
3.308545
3.001690
3.092952
3.549809
3.281708
3.390123
1.794987
3.833056
3.704461
2.214922
3.539467
3.196492
3.482440
2.839636
2.584218
3.989282
3.327609
2.516645
2.924827
3.767693
2.246764
4.161459
3.455039
3.940093
2.552080
3.542237
3.746792
2.692145
2.865237
3.992942
3.769902
3.114289
2.428259
4.178958
3.201850
2.878290
2.756424
2.486306
4.234955
1.900468
4.110981
1.408677
3.420224
3.182680
1.837605
4.098595
4.249402
3.605779
2.465992
4.140424
3.175948
2.163573
3.557998
1.834170
2.082712
4.339291
4.345051
1.073606
1.580303
4.313068
3.175797
3.174749
3.250915
3.126009
3.396829
3.215122
3.236414
2.908137
2.855635
3.204642
3.734985
3.164648
3.284301
3.502621
3.368202
3.053144
3.395452
3.066119
3.621593
3.331625
4.126839
3.889777
3.120388
3.004515
3.259727
2.990851
3.295982
3.260583
3.477932
3.147999
3.170478
3.292662
3.642705
2.679865
3.347959
4.245190
2.712904
2.799418
3.656248
2.157000
3.772278
2.854760
2.415287
3.941033
0.712582
4.117099
4.369125
2.991258
2.706461
4.181186
3.414137
3.067945
2.876059
4.164883
0.295958
0.643037
4.273093
2.143976
3.335949
2.380214
2.960820
2.360304
3.458532
2.562416
3.148900
2.735589
2.793434
3.427304
3.531202
2.326337
1.899262
1.570542
1.202585
3.466621
3.629766
2.228891
3.121182
3.282425
3.067257
3.348520
2.495390
2.586141
2.688948
2.778521
3.006544
3.029625
2.866118
2.782834
4.049807
4.140853
2.248023
2.453785
3.292208
3.274177
4.255481
4.277598
2.058835
1.806315
2.847185
3.652217
3.590005
4.253286
4.277055
1.480981
1.250330
1.067054
2.996944
3.133231
2.981932
3.141494
2.994586
2.911203
2.920794
2.547206
4.054801
4.124101
3.805787
3.855195
2.460818
2.527789
3.095284
3.276467
2.924180
3.007213
3.748199
3.871651
2.713020
2.630583
3.209173
3.179090
2.426806
2.624074
3.611306
3.519681
3.312649
3.110701
2.101205
2.036496
2.199174
2.155250
2.481886
2.507064
3.423961
3.254724
4.171935
4.246031
3.390265
3.385021
4.035122
4.036035
2.681120
2.663613
3.772799
3.727479
2.037993
2.778506
2.708860
4.209790
4.304038
4.228009
4.291735
2.864744
2.873742
3.927462
3.890489
3.697683
3.710525
2.892116
2.992767
2.962970
2.851580
2.864746
2.898638
2.931059
3.648639
3.870259
2.836668
2.709829
3.010495
2.950557
2.772230
3.030088
3.068285
1.991377
2.818022
2.972160
2.620523
2.790799
1.618271
3.227182
3.374096
3.142106
3.281025
2.848514
2.736820
1.920497
3.127975
3.010924
1.688890
1.667909
3.536386
3.392528
4.075576
3.932800
3.290197
3.445643
2.886085
3.084960
3.123931
2.951649
4.154936
4.149622
2.440578
2.152386
2.515487
2.867661
3.630815
3.433965
4.062498
4.117845
3.966364
4.034155
2.427326
3.598447
3.797802
3.908173
4.088651
3.247377
3.358329
3.582028
3.849052
3.675473
0.862308
0.537467
2.794785
3.499013
3.358053
2.374459
1.975617
1.651674
3.588593
3.540951
2.038610
3.179076
3.209925
3.207757
3.340251
2.431699
2.345082
2.776050
2.772610
3.005511
2.932621
2.707548
2.841749
4.146385
4.211522
2.471358
2.433030
3.280414
3.213432
4.232089
4.316194
2.055214
2.129414
2.751089
3.617911
3.580963
4.247630
4.339882
1.722266
1.754248
2.999359
2.974129
3.030040
2.971553
2.889861
2.976027
2.806703
2.434153
4.154622
4.141410
3.901717
3.829367
2.443046
2.307828
3.152638
3.102344
2.929789
2.792574
3.882343
3.893659
2.509950
2.676705
3.117930
3.229155
2.547555
2.646360
3.508307
3.592816
3.004274
3.156953
1.854318
1.943079
1.906539
1.999908
2.439202
2.337146
3.398453
3.361548
4.192608
4.215248
3.422845
3.326983
4.128865
4.146095
2.592803
2.646968
3.721203
3.829021
2.099416
2.096314
2.582733
2.651370
4.258190
4.338376
4.235964
4.347778
2.759473
2.849749
3.888309
3.905818
3.692210
3.724256
2.836869
2.835565
2.806093
2.853642
2.841821
2.847941
2.804704
3.868117
3.779500
2.835132
2.789496
2.865079
2.866520
2.857919
2.977953
2.986716
2.845163
2.793680
2.627716
2.710219
3.307499
3.295309
3.161094
3.170150
2.378050
2.667744
2.646375
1.641236
2.997198
3.025308
1.376254
1.437995
3.470690
3.504518
4.029142
4.099810
3.432832
3.439631
2.948572
3.067845
3.103965
3.090524
4.182526
4.250779
2.357457
2.452682
2.797093
2.811501
3.608504
3.593031
4.175458
4.093217
3.988902
3.993479
2.474860
3.761149
3.824725
4.041400
4.001217
3.193114
3.550601
3.545891
3.818142
3.834559
1.353149
1.343417
0.946621
1.336569
3.192879
3.906180
2.443740
3.792477
4.038179
4.188604
4.264406
4.274561
3.009133
2.794098
3.515238
2.539204
3.510088
2.266380
3.645965
4.075891
2.912123
2.743852
3.941546
4.397938
2.363854
2.949631
3.573669
3.200300
2.227483
4.224251
3.191807
4.431429
1.972462
3.737774
1.527283
3.389752
4.406798
3.073091
4.464147
1.651034
3.877043
1.193352
3.890991
4.400859
2.855663
3.126225
3.179206
2.914318
3.467020
2.843402
3.056372
3.406015
3.673484
1.907321
3.589716
2.312031
3.647263
3.205699
3.375406
2.793278
4.006877
2.673343
3.111581
2.608351
2.948251
3.867807
2.394299
4.175236
3.245953
3.744132
2.567322
3.519109
2.680118
3.751437
3.073352
4.146481
3.227181
3.863828
4.386800
2.674729
3.184759
2.518939
2.547495
2.523482
4.306191
2.117503
4.121895
1.496406
3.147016
3.458855
2.039560
4.090162
4.209089
3.697659
2.695268
4.259048
2.973133
2.132487
3.362902
1.849330
2.331497
4.416164
4.335941
1.282339
1.714196
4.306647
2.960812
3.046554
3.031513
3.145894
2.965203
3.273991
3.030694
2.614794
2.908800
3.649356
2.958108
3.118728
2.928089
3.048282
2.811015
3.241092
3.309792
2.988874
3.368129
3.451182
2.912088
2.957327
2.749355
3.198380
3.469320
3.096137
3.289346
3.692931
3.082974
2.956769
3.497844
3.874631
3.371854
2.242115
2.756795
2.558640
1.828768
3.753423
2.681761
3.717812
3.928510
2.157860
4.153343
0.844858
4.305374
2.982664
2.589845
4.165988
3.073443
2.508253
0.476222
4.145761
0.863645
4.323796
3.998701
1.756943
3.433568
2.047370
2.996894
3.957216
1.956190
3.525453
3.167498
2.193219
4.015184
4.438384
0.145226
2.287347
2.283160
2.233387
2.163455
1.933347
2.102081
2.054379
1.848825
2.983463
2.329397
1.358592
1.347170
1.205955
3.160210
2.241937
1.300059
2.909369
3.117582
2.184635
2.308705
1.160908
3.210891
3.221361
3.175625
3.270724
2.437249
1.882283
1.614337
2.138948
2.850842
2.141352
2.153609
2.715307
1.964564
1.636170
1.411663
1.752223
2.255735
1.848448
2.252426
2.107357
1.190436
1.953660
2.922449
3.502932
3.573779
2.957086
1.590672
3.646766
0.719685
2.788869
3.146436
3.622820
2.957881
2.240899
1.536418
0.847145
2.567757
2.990656
2.819211
2.570634
0.815023
3.509076
2.155525
1.963105
2.015710
2.459709
0.751565
2.805865
2.843364
3.317023
2.000899
2.056897
2.965229
2.581003
2.540332
1.939416
1.883967
1.717529
1.729387
1.639047
1.566319
2.653791
1.870085
2.255551
2.543061
1.842026
1.800200
2.494063
0.584461
2.035524
2.487016
3.461613
1.598834
2.111603
2.044699
0.933284
3.697536
1.744955
1.918241
3.386612
1.415734
3.436249
1.769394
1.178152
2.353636
3.739719
1.995266
2.651146
3.631241
1.803596
2.193307
2.561228
1.602857
3.556151
3.455716
1.872923
2.673876
1.829626
2.180256
1.172312
1.426238
3.775762
3.198062
2.041484
0.904586
2.317708
1.981751
2.089902
2.680442
2.631639
3.708917
2.541538
1.976979
2.080525
2.064060
1.604703
2.787208
3.230491
2.839016
2.781247
2.094221
1.240343
1.665093
2.810046
2.388283
1.906443
1.251498
1.849602
2.769019
3.086669
2.121306
2.126115
1.716239
1.778202
1.154089
1.103665
3.252224
3.807378
0.687329
3.305167
2.884328
2.358064
2.918023
2.848498
2.342305
2.892986
2.604161
2.058494
2.236675
2.914490
1.784992
1.115120
2.807365
1.720812
1.619306
1.811686
2.091371
2.543178
1.993678
3.754397
2.541446
3.262153
3.178862
3.872767
3.363384
0.417032
2.260398
3.209874
3.324216
1.762696
2.133936
0.606116
1.565683
1.254430
2.210164
2.779004
2.325401
2.867503
2.215221
1.844434
3.064131
1.865016
0.782747
0.480628
2.129302
3.495221
3.275873
2.409113
3.827345
3.093968
2.347707
3.419109
2.473007
2.681208
1.687908
3.213493
1.581535
1.502874
2.674560
2.171296
2.336094
2.785583
2.204700
3.579297
3.222694
1.989998
1.484865
0.321652
3.491017
2.119433
3.660766
3.097166
3.920454
2.329894
3.059853
3.916625
2.992461
2.380493
2.192348
3.528565
1.988865
3.189930
1.903381
3.503739
2.318595
2.564217
3.521670
1.994622
1.918406
2.411043
1.490021
1.756619
1.965907
2.728016
1.845035
1.945429
1.454317
2.125856
1.945581
3.175828
3.005618
0.991539
2.313692
1.980133
0.985088
1.782242
2.673927
1.523096
1.216740
3.520062
2.525457
2.596263
2.281476
1.627050
1.262277
1.866519
3.106935
1.881092
1.688995
2.483983
3.006640
2.469244
2.991979
2.530739
1.946583
3.687320
0.352249
1.044800
2.072982
1.994644
1.953821
2.266637
3.738871
1.614764
2.102108
2.680325
1.731818
1.746431
2.424985
1.576341
1.650701
1.482095
3.888268
3.861873
2.334940
2.531372
1.054789
3.165514
1.881421
2.563940
1.856787
0.922650
1.935213
1.512810
1.987434
0.816328
3.439679
2.301365
2.115290
2.573566
2.120445
1.952312
3.355413
1.823009
2.379972
1.905458
2.852512
2.422488
3.124534
2.989791
1.845116
3.048557
3.486672
2.306301
1.541321
1.425294
2.027296
3.475589
2.465073
1.862091
2.132856
3.343276
2.349424
1.941266
1.585013
2.508460
1.942511
2.196856
1.628788
3.245990
2.821520
2.608773
2.595406
1.997207
2.862746
1.228269
2.177993
1.921817
1.479957
1.880890
2.099870
1.585607
3.866070
1.932661
0.552401
1.660434
1.801854
2.079318
2.534290
1.582342
3.265506
2.647492
3.535843
3.977174
2.611720
3.560042
2.833996
3.253712
2.966468
2.206254
2.425415
1.877655
3.499714
2.696421
3.221779
2.287522
1.473105
1.619542
2.089718
1.744754
2.266049
2.390145
0.941345
1.140267
3.803457
1.186118
0.789028
3.627806
2.169112
3.018002
3.167173
1.082599
1.039850
2.145980
3.980989
3.903631
2.167819
3.207709
3.181661
2.423798
1.529026
3.339274
3.286356
4.099469
3.761027
3.868557
3.818042
3.120864
2.302140
2.277163
2.151644
2.428188
3.282826
3.266362
2.621847
4.100190
3.980307
1.519714
2.118712
1.565215
0.804911
0.779880
1.600873
0.717185
0.655280
0.735844
1.655386
1.657689
0.782591
1.626055
2.533742
1.666136
1.674361
1.571285
1.615408
1.963477
0.851740
0.899648
1.526211
0.718703
0.789317
0.763550
1.544547
2.481630
1.657621
0.724775
0.637194
2.698708
2.475518
2.634836
2.484587
2.539571
2.352302
3.126770
2.485573
2.886240
2.432666
3.087592
2.303193
2.730332
2.709174
2.619731
2.547126
2.531144
2.747502
2.613976
2.493474
2.512020
2.473085
2.522953
3.110450
3.002468
3.320408
2.797995
2.593560
2.957656
2.746963
2.509424
3.192014
4.034444
3.585910
2.493658
3.242686
3.214010
3.778341
3.448592
1.432493
3.979049
3.834386
3.479226
2.357518
1.523639
2.506584
2.313106
1.921082
2.857279
2.986149
3.061274
2.954596
2.857124
2.482666
2.489855
2.587190
2.810765
2.990044
2.688080
2.718802
3.073430
3.053369
1.416022
1.637397
2.830814
2.855337
2.241150
2.001010
1.604746
1.659901
1.982131
1.607212
1.693723
1.611723
2.217634
4.080400
3.577481
3.678946
3.941833
2.596418
1.452036
1.027513
1.096445
0.396948
2.459808
1.233473
1.560539
1.582903
3.946591
3.960529
3.214099
2.362925
3.301831
4.191221
3.241162
2.374332
3.108069
3.350284
2.470297
4.085062
2.899445
2.598355
2.386965
2.561298
2.521230
1.999231
2.441079
3.162183
2.716931
3.181124
3.851000
3.510102
2.589402
2.460171
4.041651
3.670179
3.053686
2.377250
1.863187
4.064780
3.483808
1.690418
3.771327
3.922950
2.674420
3.036133
2.763557
2.913062
3.193524
3.136802
3.087496
3.355118
3.719664
3.508912
2.933959
3.823945
3.550216
3.984117
3.687833
2.769020
0.260088
0.285213
1.631668
0.698051
0.704208
0.760325
0.769542
3.208351
0.688634
2.463062
3.817418
3.851460
2.776974
2.387024
3.037070
3.132598
2.788874
2.521397
3.211481
3.295480
3.294081
2.514100
3.123854
3.127525
4.098165
2.351274
2.939357
2.339302
2.565240
2.560291
2.550361
2.460161
1.998973
1.941035
2.580959
2.729649
2.520047
2.670558
3.719044
4.142636
3.824920
1.577240
3.991407
1.840254
2.301202
1.688956
1.826665
1.789862
2.300489
3.816385
2.618786
2.513345
1.941067
2.339007
3.881531
1.587309
2.683553
2.680624
2.672193
2.851851
2.738769
3.810195
2.691791
2.955223
2.454937
2.948199
2.823236
3.043896
3.125177
2.836765
2.863304
3.116304
2.663557
2.727287
2.633566
0.338150
4.060490
3.977923
3.722044
4.079025
3.774507
4.199758
3.928374
4.191929
1.012717
0.830277
1.304033
1.317639
0.860259
0.452607
0.729318
3.531294
3.556084
3.904240
3.833671
2.537324
2.922762
2.340588
2.378395
2.611693
2.990245
2.705680
2.455808
3.270842
3.423329
2.889453
3.219841
2.668845
2.478273
2.336183
2.325637
3.214379
3.209438
3.149150
2.528033
3.857835
4.039707
3.830829
3.456965
3.952988
2.750747
2.777506
2.900927
2.774976
2.890987
2.790235
2.966573
3.059183
3.043057
2.376520
2.825348
2.799505
2.298723
3.908003
2.727817
3.116217
3.552579
3.145645
3.534824
2.715153
3.088157
1.130747
1.749441
0.692906
2.425089
2.557752
1.479288
1.489994
1.491695
1.832745
1.503404
2.453641
2.106712
2.269413
2.325299
1.495150
1.821362
1.636979
1.794536
0.646530
1.571655
2.352544
2.087405
2.356767
1.948105
2.067552
0.684092
1.236110
0.649819
0.694871
2.042516
2.149708
2.154815
1.588038
1.610538
2.012655
1.155702
3.621154
2.627802
2.286642
2.442757
2.648537
2.396363
1.611343
1.240871
1.311822
1.652349
1.726914
1.928105
2.083474
2.200966
2.275061
2.127008
3.764662
2.349603
1.944919
1.938398
2.124134
2.863353
3.010055
2.673731
2.553502
2.896380
2.836119
2.345088
2.789494
2.995088
2.698691
2.652444
2.304159
2.262112
2.766022
2.403595
2.733554
2.352685
2.309230
1.966523
2.487843
2.548546
2.673143
2.840563
2.344198
2.324665
2.733516
2.331937
2.068939
2.316638
1.467305
3.685994
3.881720
0.877547
2.519818
1.602776
1.579586
2.313196
2.312798
2.652638
1.579855
3.421061
3.507147
3.625566
2.240293
3.068320
1.153900
1.257343
1.328534
0.737855
3.183688
3.355195
3.363272
3.165485
3.028382
3.199251
2.098843
2.157119
2.381317
2.490488
0.745184
3.855645
3.228087
3.404410
3.150251
1.958289
1.532845
2.080368
0.664513
2.788326
2.931338
3.798735
2.031939
3.376141
3.087865
3.435632
0.666286
1.641455
1.763460
2.541056
2.790909
2.864705
2.757676
2.809140
2.018066
3.058351
1.491334
1.916507
1.635887
1.092721
2.633828
2.901942
3.091515
2.180955
2.408800
2.564345
2.771206
1.816001
1.917885
2.128117
2.152838
2.353343
3.162868
1.936016
2.361001
2.269807
2.349034
3.898776
4.094726
3.384352
0.359601
2.305302
1.980417
2.407218
2.816935
2.592460
2.423967
2.792736
2.414595
2.835550
1.948912
2.461768
0.728555
0.720119
0.765689
1.163098
1.247608
1.236992
2.645825
2.399774
2.433402
2.009925
2.543249
2.314662
2.950388
2.643930
2.843333
2.184034
2.461673
2.752714
2.058265
1.862417
2.009350
1.706444
1.990942
1.611021
1.502591
1.704049
1.915672
3.327934
2.521839
1.083452
1.065154
1.173292
3.493951
2.328747
1.646299
2.238059
2.470371
2.391303
2.755009
2.362011
3.183737
3.105930
3.258987
3.400721
2.787407
3.215188
3.310378
3.052687
3.289670
2.642376
2.872584
2.804374
3.736333
3.890937
3.183641
2.966323
2.018888
2.116086
2.893388
3.411332
3.337623
2.213392
2.289254
3.486729
3.402069
3.631155
1.548907
1.624651
1.694363
1.993144
1.569389
1.233863
1.700955
1.153802
2.186168
2.106114
2.339102
3.030291
3.629415
3.782201
3.526869
2.155680
2.673882
1.659411
3.514141
2.014274
1.516123
3.537682
1.746406
1.446595
2.700435
2.479789
2.910132
2.717170
2.832547
0.903358
2.447075
2.558307
3.456582
3.621164
3.014485
3.154284
2.261012
3.207267
3.339268
3.214233
3.030178
2.504918
2.764470
2.584124
2.268723
0.288935
0.273042
0.300068
2.177441
2.368356
1.435698
3.071446
3.246456
2.829233
2.691840
2.890685
3.477433
1.950489
3.145339
3.035092
2.689552
2.482441
2.393620
2.476000
2.294214
2.630440
1.974888
1.977911
3.590957
2.865263
0.690649
3.304128
3.111280
3.494584
3.469758
3.616446
2.300894
2.968247
3.172394
2.017205
2.161878
2.522731
2.279645
1.394716
1.218357
1.529206
3.263421
0.674722
2.875137
2.663779
2.824343
2.931937
2.153768
2.038023
2.593393
1.071477
1.183659
2.068373
2.709766
2.887674
3.331413
0.901082
3.450561
3.288943
3.643590
2.612644
0.327322
1.195427
1.275052
2.412194
2.913331
1.757209
1.590871
1.702710
2.165530
1.324623
2.444732
2.583493
2.727157
2.273218
2.435750
3.617043
3.842825
2.263611
2.145619
3.681681
3.826761
2.412013
2.234496
3.528486
2.782568
2.657656
2.519104
3.756056
3.487152
2.856875
2.407719
3.810764
3.072187
3.235325
2.757604
1.782540
1.975502
3.240621
3.705319
3.967982
2.243479
0.948895
1.263945
1.354582
1.000130
1.919237
2.107115
2.414411
1.245958
1.323789
2.822230
2.960181
2.912498
2.228096
2.374535
2.031387
2.479139
2.150256
2.536517
3.078811
2.605055
3.176152
3.620648
3.200752
0.849417
0.854287
1.104881
1.317553
0.415236
0.855250
1.299884
1.301310
1.467792
1.395571
2.263745
2.705957
2.310494
1.889953
2.723413
1.483597
2.357943
2.700271
2.301053
2.006610
2.741467
1.696181
1.446344
1.295043
0.816600
1.077591
1.339099
1.862314
1.398355
1.847197
1.902363
1.525498
2.003088
1.495303
1.342272
1.716153
1.473682
2.004174
1.971478
0.830977
0.401377
1.056983
1.900468
1.862936
2.014193
1.500054
2.270885
2.262165
2.328052
2.418787
3.252489
2.594253
1.896814
1.612258
2.245793
2.222308
1.375808
1.517126
1.418647
1.310559
2.335363
1.837604
1.952219
2.688756
2.663844
2.657274
2.269018
3.094947
3.274912
2.665854
2.669726
2.631675
2.271069
2.486210
2.349811
2.669222
2.646877
2.871082
2.884708
3.192900
2.538224
2.125162
2.770207
2.481363
2.609197
2.690023
3.053860
2.665114
2.596651
2.636450
2.325828
3.211594
2.907767
