# vtk DataFile Version 2.0
Unstructured Grid Example
ASCII
DATASET UNSTRUCTURED_GRID
POINTS 1221 float
-0.005207 -0.004782 -0.000102 
1.005206 -0.004563 -0.001043 
1.004632 1.005042 0.000452 
-0.004364 1.005055 -0.001124 
-0.005220 -0.004896 0.049818 
1.005427 -0.004810 0.048897 
1.004515 1.004975 0.050380 
-0.004649 1.005361 0.048801 
-0.005133 0.045403 0.049887 
-0.004895 0.096262 0.049885 
-0.004046 0.147475 0.049864 
-0.002339 0.198887 0.049917 
-0.000058 0.250246 0.049868 
0.002786 0.301180 0.049764 
0.005725 0.351548 0.049717 
0.008251 0.401403 0.049741 
0.010011 0.450664 0.049788 
0.010603 0.499680 0.049930 
0.009941 0.548627 0.050156 
0.008110 0.598115 0.050454 
0.005575 0.648057 0.050702 
0.002632 0.698723 0.050724 
-0.000127 0.749864 0.050588 
-0.002354 0.801255 0.050313 
-0.003945 0.852956 0.049857 
-0.004687 0.904281 0.049403 
-0.004736 0.955072 0.049106 
-0.005178 0.045527 0.000071 
-0.004851 0.096321 0.000191 
-0.004005 0.147499 0.000277 
-0.002325 0.198953 0.000295 
0.000080 0.250085 0.000117 
0.002862 0.301019 -0.000049 
0.005789 0.351460 -0.000255 
0.008278 0.401327 -0.000423 
0.009982 0.450647 -0.000436 
0.010583 0.499796 -0.000372 
0.009941 0.548884 -0.000083 
0.008059 0.598467 0.000294 
0.005422 0.648317 0.000730 
0.002419 0.698741 0.000933 
-0.000345 0.749721 0.000922 
-0.002491 0.801144 0.000685 
-0.003888 0.852550 0.000323 
-0.004483 0.903849 -0.000224 
-0.004507 0.954750 -0.000730 
-0.005180 -0.004803 0.024850 
-0.004483 1.005171 0.023839 
0.045109 -0.005002 0.049772 
0.095963 -0.004806 0.049761 
0.147285 -0.004071 0.049580 
0.198812 -0.002520 0.049519 
0.250123 -0.000258 0.049464 
0.301060 0.002607 0.049503 
0.351517 0.005626 0.049614 
0.401446 0.008170 0.049733 
0.450812 0.009987 0.049953 
0.499820 0.010677 0.050267 
0.548787 0.010065 0.050531 
0.598328 0.008284 0.050757 
0.648266 0.005726 0.050849 
0.698946 0.002763 0.050714 
0.749944 -0.000101 0.050438 
0.801405 -0.002371 0.050158 
0.852998 -0.003926 0.049770 
0.904279 -0.004671 0.049441 
0.955135 -0.004890 0.049089 
0.045106 -0.004841 -0.000035 
0.095953 -0.004739 0.000076 
0.147074 -0.003969 0.000040 
0.198674 -0.002321 -0.000142 
0.249998 -0.000061 -0.000233 
0.301037 0.002751 -0.000311 
0.351570 0.005702 -0.000369 
0.401517 0.008255 -0.000397 
0.450975 0.009990 -0.000290 
0.500042 0.010570 -0.000047 
0.549037 0.010007 0.000278 
0.598538 0.008086 0.000619 
0.648402 0.005527 0.000866 
0.698762 0.002493 0.000904 
0.749908 -0.000293 0.000799 
0.801228 -0.002435 0.000545 
0.852727 -0.003862 0.000164 
0.903991 -0.004553 -0.000260 
0.954857 -0.004622 -0.000713 
1.005279 -0.004660 0.023930 
1.005351 0.045462 0.049122 
1.005041 0.096257 0.049433 
1.004145 0.147372 0.049706 
1.002427 0.198994 0.050067 
1.000063 0.250284 0.050313 
0.997128 0.301161 0.050515 
0.994211 0.351708 0.050515 
0.991692 0.401564 0.050385 
0.989991 0.450935 0.050221 
0.989429 0.499930 0.050031 
0.990153 0.548854 0.049850 
0.991992 0.598313 0.049808 
0.994518 0.648146 0.049847 
0.997372 0.698796 0.049891 
1.000096 0.749803 0.049869 
1.002329 0.801161 0.049932 
1.003756 0.852663 0.050008 
1.004436 0.903867 0.050113 
1.004561 0.954669 0.050253 
1.005166 0.045762 -0.000655 
1.004908 0.096557 -0.000267 
1.004096 0.147702 0.000141 
1.002432 0.199199 0.000435 
1.000120 0.250434 0.000644 
0.997285 0.301231 0.000628 
0.994270 0.351478 0.000494 
0.991793 0.401384 0.000240 
0.990050 0.450750 -0.000033 
0.989457 0.499793 -0.000273 
0.990036 0.548881 -0.000395 
0.991807 0.598440 -0.000360 
0.994400 0.648354 -0.000130 
0.997424 0.698736 0.000089 
1.000171 0.749773 0.000197 
1.002344 0.801147 0.000303 
1.003847 0.852679 0.000395 
1.004523 0.903919 0.000392 
1.004662 0.954744 0.000410 
1.004542 1.004975 0.025404 
0.954248 1.004948 0.050180 
0.903445 1.004727 0.049997 
0.852355 1.003929 0.049799 
0.800915 1.002358 0.049662 
0.749572 1.000118 0.049613 
0.698757 0.997274 0.049669 
0.648335 0.994393 0.049751 
0.598397 0.991878 0.049967 
0.549031 0.990120 0.050103 
0.500030 0.989439 0.050344 
0.451077 0.990041 0.050502 
0.401587 0.991740 0.050628 
0.351752 0.994235 0.050656 
0.301195 0.997127 0.050500 
0.250300 0.999965 0.050204 
0.199129 1.002322 0.049897 
0.147596 1.004065 0.049586 
0.096448 1.004851 0.049350 
0.045638 1.005193 0.049095 
0.954303 1.005012 0.000392 
0.903562 1.004767 0.000299 
0.852479 1.003980 0.000143 
0.800908 1.002364 0.000074 
0.749623 1.000135 -0.000089 
0.698690 0.997334 -0.000200 
0.648193 0.994426 -0.000197 
0.598321 0.991908 -0.000221 
0.548915 0.990150 -0.000121 
0.499876 0.989555 0.000020 
0.450913 0.990063 0.000237 
0.401446 0.991921 0.000496 
0.351651 0.994404 0.000652 
0.301411 0.997346 0.000688 
0.250501 1.000076 0.000493 
0.199144 1.002334 0.000263 
0.147731 1.003966 -0.000046 
0.096650 1.004667 -0.000352 
0.045907 1.005002 -0.000729 
0.019909 1.005152 0.017903 
0.015281 1.005242 0.034358 
0.980200 1.005024 0.019253 
0.984705 1.004992 0.035756 
0.481925 0.989518 0.025256 
0.775240 1.001288 0.024817 
0.673438 0.995809 0.024736 
0.525077 0.989645 0.025070 
0.724138 0.998769 0.024726 
0.623292 0.993045 0.024836 
0.071049 1.005032 0.024333 
0.224776 1.001250 0.025178 
0.573827 0.990864 0.024919 
0.173410 1.003203 0.024936 
0.122050 1.004481 0.024640 
0.878021 1.004497 0.025068 
0.826680 1.003228 0.024903 
0.376588 0.992972 0.025628 
0.922232 1.004909 0.025204 
0.275860 0.998658 0.025451 
0.326572 0.995699 0.025664 
0.426355 0.990782 0.025483 
0.500036 0.500202 0.050674 
0.291880 0.294357 0.050415 
0.708291 0.705704 0.050293 
0.709591 0.290070 0.049661 
0.290261 0.709840 0.049743 
0.501389 0.775389 0.050021 
0.778285 0.497837 0.050029 
0.499516 0.229257 0.049819 
0.230137 0.502842 0.049887 
0.164427 0.166755 0.050167 
0.834769 0.165821 0.050087 
0.834049 0.834671 0.049878 
0.165233 0.834045 0.050036 
0.563583 0.638894 0.050524 
0.436561 0.361402 0.050516 
0.640548 0.437700 0.050156 
0.355298 0.567155 0.050134 
0.642037 0.842577 0.049966 
0.358497 0.158080 0.050032 
0.155807 0.358295 0.050045 
0.842292 0.357926 0.050073 
0.842258 0.643473 0.050068 
0.643744 0.157869 0.049965 
0.356261 0.842077 0.050049 
0.158241 0.636923 0.050036 
0.676048 0.581779 0.050419 
0.560846 0.333299 0.049915 
0.439188 0.666869 0.050186 
0.324164 0.420270 0.050359 
0.534252 0.873167 0.050013 
0.464618 0.126915 0.049910 
0.873350 0.465115 0.050011 
0.128766 0.464986 0.049772 
0.747304 0.897116 0.049722 
0.107568 0.255072 0.050142 
0.255597 0.097372 0.049918 
0.897028 0.252547 0.050229 
0.889967 0.740074 0.049945 
0.740161 0.110061 0.050196 
0.259919 0.889733 0.050139 
0.109869 0.741571 0.050218 
0.602142 0.736801 0.050269 
0.397994 0.263345 0.050273 
0.741526 0.403495 0.049821 
0.255231 0.598976 0.049793 
0.597073 0.520858 0.050611 
0.399465 0.475432 0.050509 
0.613000 0.257069 0.049603 
0.386791 0.742816 0.049859 
0.092648 0.089934 0.049973 
0.907383 0.090051 0.049767 
0.909763 0.907142 0.049967 
0.093916 0.910298 0.049721 
0.436155 0.894309 0.050213 
0.894444 0.563746 0.049923 
0.563774 0.105765 0.050171 
0.105620 0.563670 0.050023 
0.255748 0.201033 0.050228 
0.744770 0.798484 0.050055 
0.798303 0.255163 0.049931 
0.207565 0.748121 0.049935 
0.195993 0.275968 0.050318 
0.798438 0.718807 0.050144 
0.717213 0.206507 0.049818 
0.282630 0.793353 0.049861 
0.502084 0.413321 0.050537 
0.497318 0.587302 0.050521 
0.243567 0.363800 0.050304 
0.756650 0.636007 0.050263 
0.686223 0.500727 0.050282 
0.645549 0.345879 0.049710 
0.312173 0.505113 0.050167 
0.354348 0.654155 0.049873 
0.076769 0.179600 0.050052 
0.173077 0.080465 0.049895 
0.821104 0.922606 0.049793 
0.922709 0.178684 0.050020 
0.920728 0.824745 0.049928 
0.824951 0.079117 0.050017 
0.077306 0.821396 0.050081 
0.181677 0.917589 0.049919 
0.651593 0.655047 0.050467 
0.348543 0.345178 0.050582 
0.514139 0.693123 0.050285 
0.485940 0.307108 0.050125 
0.611153 0.910117 0.049922 
0.388410 0.090159 0.049861 
0.085914 0.393667 0.049811 
0.909850 0.388913 0.050231 
0.920581 0.661774 0.049974 
0.661890 0.079627 0.050424 
0.338444 0.920333 0.050344 
0.078862 0.662699 0.050397 
0.430068 0.815355 0.049942 
0.814595 0.566900 0.050065 
0.569680 0.184445 0.049764 
0.185971 0.567967 0.049824 
0.196585 0.430369 0.049907 
0.574959 0.812223 0.050074 
0.425404 0.185323 0.049911 
0.815237 0.425611 0.049983 
0.564752 0.458084 0.050494 
0.436153 0.541881 0.050483 
0.772491 0.329087 0.049850 
0.227014 0.670327 0.049803 
0.669759 0.779452 0.050171 
0.331159 0.220172 0.050222 
0.678671 0.926810 0.049733 
0.071965 0.316380 0.049909 
0.321222 0.073169 0.049747 
0.926602 0.321258 0.050344 
0.741414 0.560273 0.050198 
0.447249 0.732201 0.050011 
0.552527 0.267688 0.049728 
0.613155 0.594315 0.050578 
0.387090 0.406740 0.050604 
0.262936 0.442754 0.050169 
0.584838 0.394023 0.050125 
0.415194 0.606220 0.050252 
0.451142 0.429143 0.050622 
0.548188 0.571503 0.050617 
0.484736 0.924467 0.050202 
0.924501 0.515184 0.049946 
0.515148 0.075657 0.050135 
0.075562 0.515023 0.049885 
0.500229 0.830638 0.049989 
0.830045 0.507326 0.049974 
0.500273 0.160563 0.049835 
0.161688 0.501129 0.049779 
0.699605 0.841577 0.049906 
0.300911 0.158135 0.050127 
0.840893 0.299814 0.050085 
0.150443 0.705012 0.050079 
0.157613 0.227526 0.050238 
0.844192 0.776731 0.049944 
0.776786 0.155777 0.050091 
0.223206 0.844006 0.050041 
0.671736 0.239577 0.049596 
0.328129 0.760367 0.049775 
0.695566 0.355141 0.049679 
0.304258 0.644884 0.049753 
0.932125 0.606846 0.049948 
0.606902 0.068097 0.050528 
0.393395 0.931927 0.050428 
0.067873 0.606863 0.050366 
0.697184 0.432803 0.050001 
0.306994 0.559152 0.049979 
0.049275 0.049141 0.049873 
0.950906 0.049248 0.049355 
0.950461 0.950500 0.050080 
0.049808 0.951064 0.049378 
0.774962 0.947603 0.049683 
0.054306 0.229919 0.050085 
0.224323 0.052475 0.049753 
0.946764 0.773985 0.049882 
0.774236 0.053213 0.050206 
0.226670 0.946313 0.050059 
0.948165 0.224676 0.050184 
0.053316 0.774072 0.050320 
0.216310 0.157640 0.050177 
0.778906 0.849664 0.049810 
0.849644 0.220953 0.050131 
0.153324 0.778315 0.050038 
0.553227 0.938187 0.050027 
[...]
POINT_DATA 1221
SCALARS u float 1
LOOKUP_TABLE default
0.071432
0.070733
0.069320
0.068417
0.072331
0.074108
0.067981
0.072709
0.069626
0.062239
0.048205
0.026181
0.002882
0.030655
0.059987
0.084595
0.101387
0.107173
0.101398
0.084248
0.060061
0.030449
0.006235
0.027136
0.049828
0.064412
0.070680
0.069134
0.061543
0.047780
0.025937
0.001668
0.030692
0.060371
0.084811
0.101154
0.107004
0.101066
0.082927
0.057828
0.029115
0.010333
0.028549
0.047086
0.059738
0.066564
0.071385
0.070129
0.070714
0.063462
0.049614
0.028565
0.006138
0.028867
0.058994
0.083867
0.101229
0.107918
0.102557
0.085721
0.061046
0.030735
0.004572
0.027886
0.049961
0.064247
0.072227
0.069548
0.062968
0.049822
0.027041
0.002434
0.029868
0.059866
0.084890
0.101447
0.106789
0.101605
0.083248
0.058782
0.029569
0.008648
0.028096
0.047793
0.061225
0.068118
0.071958
0.071439
0.063691
0.049671
0.026552
0.004320
0.031730
0.061196
0.085501
0.101582
0.106801
0.100169
0.082704
0.058482
0.029229
0.002579
0.026296
0.046518
0.059467
0.065994
0.067831
0.060627
0.047473
0.026240
0.007939
0.030776
0.059994
0.084120
0.100806
0.106568
0.101375
0.084338
0.058979
0.029000
0.003492
0.026543
0.047534
0.060590
0.067324
0.068181
0.065910
0.059091
0.046323
0.025781
0.005954
0.030453
0.059151
0.083636
0.100303
0.106753
0.101332
0.085211
0.061235
0.031840
0.003678
0.025083
0.047891
0.061098
0.069129
0.066853
0.060196
0.047391
0.025593
0.004144
0.030078
0.059235
0.083528
0.100121
0.105531
0.100839
0.083065
0.059308
0.031151
0.007146
0.025255
0.046167
0.058151
0.065713
0.069147
0.070678
0.068272
0.067960
0.105964
0.013361
0.045263
0.104835
0.015433
0.072369
0.064989
0.012955
0.093169
0.036133
0.054319
0.054735
0.036777
0.073071
0.063368
0.016733
0.046749
0.094250
0.007114
0.008541
0.009429
0.009313
0.009378
0.060865
0.062346
0.060749
0.059409
0.055046
0.054565
0.052945
0.053590
0.018243
0.021197
0.019214
0.019501
0.048107
0.049388
0.050926
0.050616
0.046586
0.048550
0.049007
0.049569
0.023110
0.025094
0.023440
0.024700
0.089446
0.091540
0.090460
0.089754
0.030861
0.032374
0.030991
0.032161
0.030890
0.031797
0.030821
0.031201
0.034692
0.035662
0.039302
0.037847
0.014647
0.016006
0.034064
0.033441
0.070084
0.069525
0.066428
0.068085
0.088930
0.087478
0.089615
0.088067
0.032313
0.032062
0.032315
0.030770
0.030550
0.027514
0.026061
0.027602
0.015099
0.011759
0.032069
0.030197
0.033812
0.007700
0.034460
0.006065
0.051624
0.055697
0.049776
0.051996
0.052013
0.054595
0.052491
0.050167
0.006966
0.009669
0.034660
0.036877
0.071955
0.072745
0.076642
0.074201
0.046113
0.048647
0.049159
0.046526
0.065965
0.065432
0.066970
0.065592
0.063361
0.062874
0.065329
0.066057
0.010287
0.009928
0.028246
0.026204
0.028315
0.028267
0.038193
0.037762
0.038576
0.040470
0.043915
0.042819
0.044499
0.012600
0.015147
0.044193
0.012943
0.011259
0.013687
0.010330
0.103295
0.102935
0.104544
0.103601
0.079525
0.079833
0.084102
0.082256
0.032352
0.033162
0.033810
0.030999
0.042324
0.042279
0.042924
0.041860
0.023085
0.024005
0.015058
0.013454
0.075773
0.078221
0.078519
0.076464
0.031435
0.031841
0.072272
0.073144
0.067854
0.070841
0.027913
0.027661
0.031536
0.028738
0.031037
0.027343
0.029507
0.029878
0.045082
0.042589
0.043719
0.043243
0.097147
0.098614
0.098383
0.097033
0.035542
0.032098
0.033297
0.033885
0.047437
0.049903
0.024291
0.021711
0.072273
0.021217
0.023100
0.014569
0.012774
0.015005
0.015215
0.062483
0.063503
0.062139
0.059131
0.064097
0.060173
0.062590
0.060639
0.022376
0.025418
0.054452
0.046273
0.022067
0.020457
0.050570
0.072821
0.073402
0.074599
0.022608
0.022336
0.021158
0.021800
0.020666
0.019111
0.044037
0.045147
0.046631
0.020072
0.022872
0.020973
0.022563
0.063215
0.062722
0.060008
0.060859
0.048952
0.049138
0.022477
0.021379
0.042454
0.041494
0.042150
0.041314
0.013071
0.013243
0.065517
0.063094
0.065425
0.063864
0.047368
0.009293
0.009792
0.017597
0.016770
0.034342
0.031792
0.033752
0.034484
0.052343
0.041192
0.042659
0.043917
0.097354
0.095857
0.098183
0.096815
0.050651
0.053075
0.050744
0.094237
0.093934
0.095806
0.094759
0.052150
0.052799
0.054241
0.009435
0.007292
0.049407
0.018433
0.018832
0.019258
0.019719
0.051043
0.052721
0.052605
0.016603
0.018982
0.045792
0.077618
0.062215
0.063289
0.062386
0.064374
0.031822
0.034791
0.029904
0.062943
0.060027
0.062463
0.062153
0.044565
0.019427
0.018538
0.019890
0.018909
0.045494
0.047688
0.046413
0.043631
0.044391
0.047600
0.046810
0.047386
0.033423
0.035324
0.040816
0.047608
0.035636
0.007403
0.010128
0.015737
0.013842
0.058618
0.046872
0.017649
0.014497
0.046834
0.034313
0.036597
0.048807
0.012304
0.015013
0.013451
0.015397
0.044514
0.041064
0.043537
0.042057
0.050335
0.053505
0.041878
0.044568
0.043971
0.041171
0.042483
0.042634
0.076439
0.069706
0.068266
0.085893
0.086645
0.086482
0.087864
0.080964
0.080567
0.082434
0.080814
0.067153
0.065460
0.067617
0.066310
0.033153
0.042238
0.027966
0.026193
0.014267
0.026632
0.012339
0.010337
0.041452
0.043347
0.040732
0.057226
0.057844
0.059043
0.060404
0.011538
0.010515
0.054449
0.106487
0.107239
0.106161
0.106687
0.036409
0.035409
0.031000
0.033087
0.033249
0.063266
0.068899
0.069305
0.069161
0.064870
0.070322
0.065505
0.068462
0.067173
0.086318
0.034630
0.027854
0.088835
0.004422
0.002921
0.012190
0.012517
0.030446
0.005641
0.004419
0.068203
0.070118
0.069943
0.079713
0.078599
0.087860
0.089601
0.026243
0.028424
0.015725
0.012373
0.014035
0.028484
0.027323
0.027382
0.046419
0.040050
0.040885
0.039527
0.042016
0.057738
0.060292
0.058853
0.105568
0.107219
0.106234
0.105949
0.033963
0.034455
0.045578
0.028474
0.027380
0.054669
0.035629
0.027513
0.014748
0.012948
0.033527
0.033444
0.034074
0.033229
0.026992
0.027559
0.033468
0.032709
0.032783
0.032920
0.032806
0.030798
0.018963
0.039508
0.035385
0.033163
0.034268
0.032263
0.030017
0.031233
0.031766
0.070152
0.061143
0.063913
0.062296
0.064846
0.072356
0.073479
0.067998
0.072064
0.056282
0.054546
0.041057
0.016484
0.018295
0.015491
0.013840
0.025798
0.027997
0.068049
0.054349
0.056598
0.055015
0.064661
0.064280
0.061172
0.060017
0.015281
0.016570
0.010245
0.012133
0.024888
0.017146
0.099712
0.100405
0.100480
0.100109
0.068372
0.068095
0.071193
0.072438
0.106315
0.016547
0.014165
0.038546
0.054942
0.065044
0.014319
0.037645
0.057032
0.066051
0.046626
0.105629
0.094255
0.073762
0.093424
0.071813
0.014310
0.044568
0.071578
0.072712
0.071448
0.071890
0.107110
0.014037
0.057238
0.040073
0.068062
0.016496
0.039662
0.057730
0.015648
0.067186
0.072959
0.106029
0.045117
0.094072
0.073026
0.045616
0.015398
0.094933
0.002498
0.007659
0.008753
0.010733
0.010750
0.061133
0.061598
0.062547
0.060812
0.054764
0.054876
0.053695
0.053776
0.017881
0.021287
0.020332
0.020256
0.049341
0.049949
0.051619
0.050097
0.047113
0.047087
0.047911
0.048251
0.023543
0.025303
0.027370
0.024058
0.089147
0.089646
0.090218
0.089833
0.030779
0.033132
0.031197
0.032316
0.030825
0.032597
0.031160
0.031837
0.035166
0.038767
0.034707
0.033948
0.013990
0.015749
0.034880
0.034406
0.069427
0.068641
0.066949
0.066680
0.087529
0.087348
0.087616
0.086826
0.032071
0.031941
0.033016
0.031967
0.030140
0.027443
0.027942
0.027939
0.014923
0.011031
0.032966
0.030505
0.035250
0.035591
0.011787
0.009505
0.051368
0.055020
0.050198
0.051012
0.052443
0.053971
0.051494
0.049547
0.005544
0.036195
0.008332
0.038041
0.072062
0.073034
0.077126
0.073216
0.046652
0.046575
0.047747
0.044897
0.064955
0.065670
0.065303
0.064680
0.064182
0.063404
0.064689
0.065209
0.010630
0.009189
0.028396
0.027440
0.025699
0.028510
0.038389
0.038729
0.039655
0.039614
0.044325
0.043860
0.045663
0.011249
0.014069
0.046094
0.014923
0.011894
0.012148
0.008499
0.102192
0.102787
0.103129
0.102736
0.079615
0.079752
0.080403
0.082724
0.032788
0.033296
0.033969
0.031010
0.042580
0.042043
0.043832
0.042620
0.023476
0.024052
0.018282
0.017061
0.075830
0.076273
0.076426
0.075267
0.047528
0.045695
0.071439
0.070138
0.068756
0.067722
0.028008
0.028098
0.031332
0.029281
0.030196
0.027286
0.028823
0.030850
0.044589
0.042669
0.044468
0.043560
0.097046
0.098073
0.098259
0.097113
0.036285
0.032253
0.032638
0.033197
0.014842
0.049985
0.025446
0.022260
0.072423
0.048436
0.012681
0.014482
0.012673
0.021460
0.032126
0.062171
0.062498
0.061146
0.059487
0.061738
0.060603
0.061207
0.059275
0.024979
0.025950
0.044722
0.023224
0.021695
0.024627
0.024021
0.072746
0.073599
0.074308
0.022075
0.022023
0.022892
0.022978
0.020268
0.018946
0.046095
0.045089
0.045312
0.019966
0.020488
0.019021
0.020577
0.062450
0.062040
0.060373
0.059560
0.048096
0.047739
0.021721
0.022026
0.041881
0.041071
0.042919
0.042195
0.014896
0.014327
0.064355
0.063601
0.063529
0.062153
0.047754
0.006775
0.008104
0.035072
0.032063
0.032822
0.033806
0.051806
0.042587
0.042996
0.043358
0.096008
0.096312
0.096443
0.095600
0.050965
0.052489
0.050314
0.093153
0.093705
0.093781
0.093917
0.053105
0.052982
0.053726
0.008116
0.005128
0.050289
0.017815
0.019617
0.020027
0.020263
0.053054
0.051276
0.052780
0.052679
0.016881
0.020418
0.077805
0.030990
0.030991
0.062063
0.064055
0.063349
0.063203
0.032665
0.035870
0.030317
0.062338
0.060433
0.061828
0.060909
0.044335
0.018279
0.019205
0.020491
0.019571
0.044988
0.047431
0.045563
0.044734
0.046002
0.046530
0.046058
0.046286
0.039556
0.027541
0.019207
0.051098
0.048562
0.036439
0.048678
0.004003
0.007778
0.017989
0.013902
0.014817
0.012646
0.058828
0.048503
0.017545
0.013904
0.048021
0.035343
0.049686
0.037589
0.011083
0.012451
0.015043
0.042809
0.041829
0.041598
0.040328
0.052973
0.051190
0.042346
0.043228
0.042406
0.041382
0.042645
0.042774
0.076415
0.077323
0.078502
0.085837
0.086947
0.087208
0.086832
0.079896
0.080619
0.080389
0.080049
0.066068
0.065836
0.065781
0.064519
0.034063
0.041885
0.027149
0.025871
0.013374
0.010049
0.041863
0.042975
0.040480
0.058642
0.058659
0.059381
0.059650
0.106260
0.106414
0.105149
0.106740
0.035416
0.036077
0.034502
0.031227
0.031521
0.032086
0.065446
0.068218
0.068649
0.066758
0.065666
0.067386
0.066427
0.065900
0.064675
0.086354
0.029185
0.027859
0.089096
0.001672
0.007740
0.006043
0.063922
0.014456
0.013347
0.029323
0.067202
0.068533
0.070159
0.002116
0.066411
0.087760
0.089130
0.034495
0.023308
0.014363
0.011025
0.013667
0.014126
0.027344
0.027625
0.039764
0.041532
0.040668
0.040965
0.058616
0.059576
0.013283
0.059220
0.105435
0.105727
0.105301
0.104786
0.033662
0.033895
0.045948
0.027951
0.028618
0.027648
0.054019
0.036208
0.013532
0.010676
0.033276
0.034400
0.033577
0.034011
0.013763
0.012591
0.034025
0.032628
0.033757
0.033385
0.033468
0.031665
0.016585
0.018857
0.035396
0.032904
0.034457
0.033378
0.030094
0.031424
0.031533
0.071656
0.061936
0.061564
0.060683
0.062659
0.071522
0.070490
0.069342
0.068067
0.056943
0.055581
0.016634
0.018227
0.016143
0.014903
0.037807
0.036958
0.026463
0.029417
0.068479
0.054578
0.055664
0.055335
0.063785
0.063515
0.061635
0.058701
0.016838
0.017526
0.007731
0.010612
0.025755
0.099037
0.100217
0.100681
0.100174
0.069667
0.071201
0.071104
0.071511
0.106538
0.015557
0.016269
0.039335
0.056371
0.066984
0.013357
0.038537
0.056116
0.066200
0.046209
0.106311
0.073478
0.094326
0.071828
0.093998
0.015684
0.044812
