# vtk DataFile Version 2.0
Unstructured Grid Example
ASCII
DATASET UNSTRUCTURED_GRID
POINTS 749 float
-0.013751 0.014661 0.001057 
0.486249 0.007550 0.000769 
0.196204 0.711817 -0.000449 
0.696204 0.704706 -0.000737 
0.096204 0.713239 -0.000391 
0.100470 1.013239 -0.000987 
1.600470 0.991906 -0.001850 
1.596204 0.691906 -0.001255 
0.908359 0.501648 -0.000463 
0.996204 0.700439 -0.000909 
0.636217 0.505518 -0.000306 
0.651213 0.555315 -0.000414 
0.894071 0.551861 -0.000554 
1.046204 0.699728 -0.000938 
-0.013648 0.015018 0.181057 
0.486352 0.007908 0.180769 
0.196307 0.712174 0.179551 
0.696307 0.705063 0.179263 
0.096307 0.713596 0.179609 
0.100574 1.013596 0.179013 
1.600574 0.992264 0.178150 
1.596307 0.692264 0.178745 
0.908463 0.502006 0.179537 
0.996307 0.700797 0.179091 
0.636320 0.505876 0.179694 
0.651317 0.555673 0.179586 
0.894174 0.552219 0.179446 
1.046307 0.700086 0.179062 
1.598415 0.842175 0.133447 
1.598363 0.841996 0.043447 
1.599029 0.887085 0.088358 
1.597749 0.797085 0.088537 
0.298415 0.860662 0.134196 
0.298363 0.860484 0.044196 
0.299029 0.905573 0.089107 
0.297749 0.815573 0.089285 
0.111249 0.012883 0.000985 
0.236249 0.011105 0.000913 
0.361249 0.009328 0.000841 
0.012493 0.101805 0.000868 
0.038737 0.188950 0.000680 
0.064982 0.276094 0.000492 
0.091226 0.363239 0.000304 
0.117471 0.450383 0.000116 
0.143715 0.537528 -0.000072 
0.169959 0.624672 -0.000260 
0.146204 0.712528 -0.000420 
0.098337 0.863239 -0.000689 
0.207613 1.011715 -0.001049 
0.314756 1.010191 -0.001110 
0.421899 1.008667 -0.001172 
0.529042 1.007144 -0.001234 
0.636184 1.005620 -0.001295 
0.743327 1.004096 -0.001357 
0.850470 1.002573 -0.001419 
0.957613 1.001049 -0.001480 
1.064756 0.999525 -0.001542 
1.171899 0.998001 -0.001604 
1.279042 0.996478 -0.001665 
1.386184 0.994954 -0.001727 
1.493327 0.993430 -0.001789 
1.598337 0.841906 -0.001553 
0.846204 0.702573 -0.000823 
0.611222 0.422524 -0.000127 
0.586227 0.339529 0.000052 
0.561233 0.256534 0.000231 
0.536238 0.173540 0.000410 
0.511243 0.090545 0.000590 
0.772288 0.503583 -0.000385 
0.977282 0.600688 -0.000701 
0.945137 0.626150 -0.000731 
0.772642 0.553588 -0.000484 
0.673709 0.630011 -0.000575 
1.137870 0.698425 -0.000991 
1.229537 0.697121 -0.001044 
1.321204 0.695817 -0.001096 
1.412870 0.694514 -0.001149 
1.504537 0.693210 -0.001202 
0.111352 0.013241 0.180985 
0.236352 0.011463 0.180913 
0.361352 0.009685 0.180841 
0.012597 0.102163 0.180868 
0.038841 0.189307 0.180680 
0.065085 0.276452 0.180492 
0.091330 0.363596 0.180304 
0.117574 0.450741 0.180116 
0.143819 0.537885 0.179928 
0.170063 0.625030 0.179740 
0.146307 0.712885 0.179580 
0.098441 0.863596 0.179311 
0.207717 1.012072 0.178951 
0.314860 1.010549 0.178890 
0.422002 1.009025 0.178828 
0.529145 1.007501 0.178766 
0.636288 1.005977 0.178705 
0.743431 1.004454 0.178643 
0.850574 1.002930 0.178581 
0.957717 1.001406 0.178520 
1.064860 0.999883 0.178458 
1.172002 0.998359 0.178396 
1.279145 0.996835 0.178335 
1.386288 0.995311 0.178273 
1.493431 0.993788 0.178211 
1.598441 0.842264 0.178447 
0.846307 0.702930 0.179177 
0.611326 0.422881 0.179873 
0.586331 0.339886 0.180052 
0.561336 0.256892 0.180231 
0.536342 0.173897 0.180410 
0.511347 0.090902 0.180590 
0.772392 0.503941 0.179615 
0.977385 0.601046 0.179299 
0.945241 0.626508 0.179269 
0.772746 0.553946 0.179516 
0.673812 0.630368 0.179425 
1.137974 0.698782 0.179009 
1.229641 0.697478 0.178956 
1.321307 0.696175 0.178904 
1.412974 0.694871 0.178851 
1.504641 0.693568 0.178798 
-0.013699 0.014840 0.091057 
0.486301 0.007729 0.090769 
0.196256 0.711995 0.089551 
0.696256 0.704885 0.089263 
0.096256 0.713417 0.089609 
0.100522 1.013417 0.089013 
1.600522 0.992085 0.088150 
1.596256 0.692085 0.088745 
0.908411 0.501827 0.089537 
0.996256 0.700618 0.089091 
0.636268 0.505697 0.089694 
0.651265 0.555494 0.089586 
0.894122 0.552040 0.089446 
1.046256 0.699907 0.089062 
1.597955 0.810329 0.120330 
1.597918 0.810202 0.056691 
1.598823 0.873842 0.056564 
1.598860 0.873968 0.120204 
0.298823 0.892330 0.057313 
0.297918 0.828690 0.057439 
0.297955 0.828817 0.121079 
0.298860 0.892456 0.120953 
1.505558 0.843495 0.133501 
1.412700 0.844816 0.133554 
1.319843 0.846136 0.133608 
1.226986 0.847457 0.133661 
1.134129 0.848777 0.133715 
1.041272 0.850098 0.133768 
0.948415 0.851419 0.133822 
0.855558 0.852739 0.133875 
0.762700 0.854060 0.133929 
0.669843 0.855380 0.133982 
0.576986 0.856701 0.134036 
0.484129 0.858021 0.134089 
0.391272 0.859342 0.134142 
1.506172 0.888406 0.088412 
1.413314 0.889726 0.088465 
1.320457 0.891047 0.088518 
1.227600 0.892367 0.088572 
1.134743 0.893688 0.088625 
1.041886 0.895009 0.088679 
0.949029 0.896329 0.088732 
0.856172 0.897650 0.088786 
0.763314 0.898970 0.088839 
0.670457 0.900291 0.088893 
0.577600 0.901611 0.088946 
0.484743 0.902932 0.089000 
0.391886 0.904253 0.089053 
1.505506 0.843316 0.043501 
1.412649 0.844637 0.043554 
1.319791 0.845958 0.043608 
1.226934 0.847278 0.043661 
1.134077 0.848599 0.043715 
1.041220 0.849919 0.043768 
0.948363 0.851240 0.043822 
0.855506 0.852560 0.043875 
0.762649 0.853881 0.043929 
0.669791 0.855201 0.043982 
0.576934 0.856522 0.044036 
0.484077 0.857843 0.044089 
0.391220 0.859163 0.044142 
1.504892 0.798406 0.088590 
1.412035 0.799726 0.088644 
1.319177 0.801047 0.088697 
1.226320 0.802367 0.088751 
1.133463 0.803688 0.088804 
1.040606 0.805009 0.088858 
0.947749 0.806329 0.088911 
0.854892 0.807650 0.088964 
0.762035 0.808970 0.089018 
0.669177 0.810291 0.089071 
0.576320 0.811611 0.089125 
0.483463 0.812932 0.089178 
0.390606 0.814253 0.089232 
1.599860 0.943982 0.128561 
1.596964 0.740349 0.128966 
1.596918 0.740189 0.048334 
1.599806 0.943267 0.048719 
1.597417 0.776440 0.018608 
1.597497 0.776718 0.158547 
1.599263 0.906300 0.017458 
1.599361 0.907731 0.158287 
1.597915 0.810992 0.031025 
1.597981 0.811220 0.145993 
1.598785 0.872220 0.029901 
1.598862 0.873179 0.145870 
1.599295 0.904637 0.119504 
1.597517 0.779551 0.119835 
1.597481 0.779427 0.057308 
1.599244 0.903518 0.054440 
1.597097 0.751279 0.088628 
1.599666 0.931931 0.087525 
0.342583 0.842746 0.116955 
1.553736 0.825522 0.116257 
0.715939 0.832175 0.111500 
0.808796 0.830855 0.111447 
0.901653 0.829534 0.111393 
0.623082 0.833496 0.111553 
1.180225 0.825572 0.111233 
0.437367 0.836137 0.111660 
0.994510 0.828214 0.111340 
0.530225 0.834816 0.111607 
1.087367 0.826893 0.111286 
1.273082 0.824252 0.111179 
1.365939 0.822931 0.111126 
1.458796 0.821611 0.111072 
0.331272 0.827248 0.101367 
1.564584 0.809708 0.100657 
0.343074 0.877246 0.116886 
1.554226 0.860022 0.116189 
0.809436 0.875855 0.111357 
0.716579 0.877175 0.111411 
0.902293 0.874534 0.111304 
0.623722 0.878496 0.111464 
0.995150 0.873214 0.111250 
0.530865 0.879816 0.111518 
0.438007 0.881137 0.111571 
1.180865 0.870572 0.111143 
1.088007 0.871893 0.111197 
1.273722 0.869252 0.111090 
1.366579 0.867931 0.111036 
1.459436 0.866611 0.110983 
0.332207 0.892998 0.101236 
1.565519 0.875458 0.100526 
0.298388 0.860535 0.089346 
0.298140 0.842788 0.096613 
0.298273 0.853145 0.071364 
0.298498 0.867573 0.107275 
0.298641 0.878559 0.082431 
1.553704 0.825412 0.060757 
0.342408 0.832157 0.071975 
0.715913 0.832086 0.066500 
0.808770 0.830765 0.066447 
0.901627 0.829445 0.066393 
0.623056 0.833406 0.066553 
1.087342 0.826804 0.066286 
0.530199 0.834727 0.066607 
0.994484 0.828124 0.066340 
1.180199 0.825483 0.066233 
0.437342 0.836048 0.066660 
1.273056 0.824162 0.066179 
1.365913 0.822842 0.066126 
1.458770 0.821521 0.066072 
1.564570 0.809660 0.076407 
0.331542 0.847909 0.056326 
0.343042 0.877136 0.061386 
1.554350 0.870433 0.071168 
0.716553 0.877086 0.066411 
0.809410 0.875765 0.066357 
0.902267 0.874445 0.066304 
0.623696 0.878406 0.066464 
1.180839 0.870483 0.066143 
0.995124 0.873124 0.066250 
1.087982 0.871804 0.066197 
0.530839 0.879727 0.066518 
0.437982 0.881048 0.066571 
1.273696 0.869162 0.066090 
1.366553 0.867842 0.066036 
1.459410 0.866521 0.065983 
0.332194 0.892950 0.076986 
1.565198 0.854619 0.055568 
0.414294 0.603980 -0.000367 
0.337553 0.371670 0.000139 
0.379076 0.802453 -0.000738 
0.525459 0.724039 -0.000672 
0.533739 0.563186 -0.000359 
1.034411 0.848626 -0.001225 
0.318507 0.691082 -0.000482 
0.431763 0.480709 -0.000134 
0.287855 0.504915 -0.000095 
0.236579 0.200055 0.000539 
0.617567 0.841737 -0.000960 
0.263202 0.785643 -0.000635 
0.427272 0.707708 -0.000580 
1.173051 0.845237 -0.001302 
0.392176 0.217363 0.000411 
1.364957 0.841947 -0.001412 
0.508192 0.846322 -0.000903 
0.491188 0.643783 -0.000492 
0.468768 0.349769 0.000103 
0.587587 0.641446 -0.000546 
0.309341 0.598128 -0.000292 
0.225319 0.372183 0.000205 
0.766797 0.836183 -0.001039 
0.539600 0.465562 -0.000169 
1.097033 0.795325 -0.001158 
0.715295 0.532045 -0.000407 
0.902318 0.907789 -0.001263 
0.933790 0.781044 -0.001031 
0.829489 0.530628 -0.000473 
0.317916 0.897239 -0.000889 
0.258445 0.649702 -0.000363 
0.457817 0.536598 -0.000260 
0.367476 0.520509 -0.000174 
0.398009 0.895363 -0.000933 
0.589884 0.546633 -0.000360 
1.018294 0.769055 -0.001058 
0.624499 0.752971 -0.000789 
0.986612 0.649830 -0.000803 
0.162357 0.118887 0.000744 
0.186891 0.809820 -0.000637 
1.273959 0.787656 -0.001249 
1.463885 0.786184 -0.001361 
0.168663 0.294391 0.000393 
0.332067 0.124867 0.000630 
0.380187 0.657472 -0.000452 
0.932148 0.573090 -0.000619 
0.204450 0.461510 0.000041 
0.474761 0.766172 -0.000724 
0.261545 0.719417 -0.000503 
0.355647 0.449211 -0.000026 
0.198559 0.907595 -0.000837 
0.280352 0.301955 0.000311 
1.100786 0.910992 -0.001389 
1.269964 0.888661 -0.001447 
0.255503 0.574417 -0.000213 
1.458059 0.898040 -0.001579 
0.571320 0.915192 -0.001077 
0.446644 0.155754 0.000500 
0.371020 0.730362 -0.000591 
0.473584 0.255728 0.000286 
0.427270 0.075308 0.000670 
0.282523 0.424305 0.000068 
0.690754 0.908668 -0.001137 
0.614140 0.593558 -0.000467 
0.584297 0.492502 -0.000249 
0.532190 0.389560 -0.000014 
0.552965 0.787241 -0.000813 
0.475635 0.586451 -0.000369 
[...]
POINT_DATA 749
SCALARS u float 1
LOOKUP_TABLE default
0.058337
0.045521
0.035994
0.017653
0.039931
0.038499
0.024101
0.026163
0.019875
0.011385
0.025040
0.023110
0.018083
0.011361
0.058893
0.045768
0.036893
0.018287
0.040848
0.039543
0.023113
0.025109
0.019863
0.011261
0.025490
0.023597
0.018139
0.011045
0.023574
0.024102
0.023596
0.024223
0.031329
0.030841
0.030881
0.031398
0.054687
0.051296
0.048220
0.055129
0.051999
0.048963
0.046038
0.043249
0.040621
0.038190
0.037958
0.038722
0.034115
0.029742
0.025385
0.021055
0.016771
0.012580
0.008623
0.005432
0.004871
0.007551
0.011374
0.015517
0.019781
0.024366
0.013503
0.028332
0.031693
0.035104
0.038551
0.042025
0.021897
0.015390
0.014637
0.020136
0.020305
0.012253
0.014136
0.016676
0.019621
0.022813
0.055184
0.051723
0.048563
0.055718
0.052623
0.049626
0.046743
0.043998
0.041419
0.039038
0.038866
0.039713
0.035160
0.030786
0.026428
0.022095
0.017804
0.013596
0.009580
0.006147
0.004781
0.006855
0.010498
0.014576
0.018810
0.023310
0.013868
0.028730
0.032049
0.035425
0.038843
0.042293
0.022150
0.015266
0.014624
0.020441
0.020858
0.011629
0.013307
0.015733
0.018617
0.021776
0.058613
0.045641
0.036443
0.017965
0.040388
0.039021
0.023606
0.025636
0.019861
0.011310
0.025260
0.023349
0.018103
0.011191
0.023908
0.024283
0.023837
0.023466
0.030753
0.031126
0.031465
0.031105
0.019885
0.016261
0.012759
0.009513
0.006895
0.005825
0.007048
0.009734
0.013007
0.016521
0.020151
0.023844
0.027574
0.019859
0.016166
0.012555
0.009125
0.006185
0.004752
0.006022
0.008904
0.012314
0.015917
0.019606
0.023341
0.027103
0.020411
0.016783
0.013269
0.009990
0.007272
0.005942
0.006862
0.009392
0.012596
0.016077
0.019688
0.023369
0.027092
0.020604
0.017077
0.013715
0.010672
0.008309
0.007317
0.008208
0.010514
0.013530
0.016880
0.020400
0.024015
0.027688
0.023273
0.024665
0.025140
0.023724
0.024857
0.024031
0.023945
0.023132
0.024427
0.023749
0.024000
0.023321
0.023362
0.024226
0.024595
0.023739
0.024754
0.023505
0.029549
0.022045
0.014930
0.011609
0.008715
0.018450
0.008695
0.025757
0.006819
0.022073
0.006810
0.011584
0.014903
0.018422
0.030027
0.022720
0.029342
0.021785
0.010919
0.014398
0.007778
0.018020
0.005579
0.021713
0.025447
0.007771
0.005575
0.010911
0.014389
0.018011
0.029635
0.022234
0.031085
0.031235
0.031032
0.031144
0.030953
0.022371
0.029387
0.014724
0.011429
0.008591
0.018229
0.006943
0.021844
0.006807
0.008911
0.025522
0.011831
0.015161
0.018684
0.022862
0.029636
0.029039
0.021986
0.014174
0.010715
0.007621
0.017786
0.007995
0.005539
0.005712
0.021473
0.025204
0.011160
0.014647
0.018272
0.029502
0.022615
0.029507
0.037663
0.027788
0.023193
0.026415
0.006034
0.031515
0.031802
0.036061
0.045530
0.018015
0.032561
0.027126
0.008587
0.040604
0.015259
0.022262
0.025964
0.034406
0.022721
0.033407
0.041272
0.012513
0.028934
0.008289
0.022177
0.006886
0.009145
0.019852
0.029636
0.034431
0.029545
0.032959
0.026388
0.025129
0.008728
0.019066
0.013400
0.050075
0.035429
0.012964
0.019736
0.045081
0.045135
0.029725
0.016830
0.039925
0.024458
0.033339
0.035067
0.034475
0.041336
0.005460
0.011183
0.035823
0.018410
0.019314
0.041225
0.028941
0.037247
0.044418
0.038097
0.014599
0.023100
0.026863
0.031443
0.021175
0.027762
0.015785
0.034641
0.048849
0.038056
0.027667
0.037961
0.020196
0.047970
0.004591
0.034558
0.010829
0.016660
0.010178
0.025159
0.028787
0.021617
0.009969
0.030816
0.025334
0.014008
0.031698
0.022936
0.024553
0.013883
0.023937
0.010170
0.031572
0.023178
0.042125
0.027113
0.025018
0.033985
0.012690
0.031975
0.019768
0.023166
0.008250
0.029810
0.032202
0.030567
0.006803
0.028260
0.043115
0.021642
0.031457
0.026662
0.039525
0.010182
0.006652
0.038211
0.052174
0.036400
0.033919
0.036323
0.020076
0.030313
0.038211
0.028790
0.024018
0.026957
0.005857
0.032369
0.032507
0.036815
0.046159
0.018869
0.033485
0.028013
0.007740
0.041008
0.014271
0.023192
0.026699
0.034941
0.023389
0.034092
0.041944
0.013297
0.029508
0.007717
0.022550
0.007614
0.009393
0.020027
0.030631
0.035188
0.030261
0.033637
0.027376
0.025675
0.008592
0.019828
0.013276
0.050645
0.036460
0.012037
0.018685
0.045731
0.045559
0.030558
0.016810
0.040649
0.025331
0.034217
0.035657
0.035549
0.041936
0.004838
0.010225
0.036576
0.017378
0.020260
0.041581
0.029815
0.037630
0.044746
0.038750
0.015507
0.023700
0.027374
0.031894
0.021953
0.028447
0.016592
0.035245
0.049497
0.038584
0.028445
0.038824
0.020873
0.048520
0.004933
0.035487
0.010086
0.015669
0.011066
0.025815
0.029410
0.020595
0.010566
0.031740
0.026164
0.013033
0.032429
0.023927
0.025146
0.014524
0.024685
0.010256
0.032170
0.022120
0.042677
0.027675
0.025974
0.034397
0.012503
0.032761
0.019875
0.023571
0.007352
0.030787
0.033199
0.031267
0.007138
0.029282
0.043815
0.022394
0.032486
0.027572
0.040164
0.009732
0.006071
0.038986
0.052757
0.037391
0.034645
0.037359
0.020972
0.033514
0.040636
0.029824
0.036984
0.043401
0.027385
0.027195
0.043472
0.022846
0.020901
0.020837
0.014160
0.017412
0.017391
0.015276
0.013010
0.012949
0.015562
0.015759
0.012135
0.012191
0.013671
0.020646
0.019457
0.021501
0.019587
0.021707
0.021545
0.012605
0.017644
0.020981
0.014878
0.011467
0.023321
0.023790
0.011601
0.032336
0.028070
0.023736
0.019423
0.015171
0.011052
0.007293
0.004826
0.005698
0.008984
0.012963
0.017033
0.020568
0.036047
0.036830
0.021925
0.053101
0.049993
0.047360
0.056227
0.054058
0.047804
0.039619
0.044907
0.050822
0.042240
0.037945
0.056618
0.056593
0.037541
0.038161
0.039503
0.037697
0.038965
0.038798
0.039182
0.039509
0.039868
0.039217
0.010015
0.031471
0.031176
0.028726
0.033682
0.030489
0.030303
0.029986
0.026614
0.029008
0.027738
0.029364
0.029026
0.034395
0.034143
0.032153
0.031919
0.032909
0.032045
0.033988
0.032583
0.024310
0.028220
0.037947
0.036714
0.025226
0.026348
0.012733
0.021526
0.021218
0.024094
0.023773
0.034165
0.034747
0.034397
0.026711
0.026380
0.039908
0.039099
0.014800
0.040612
0.040064
0.038321
0.036103
0.038075
0.036924
0.037464
0.037110
0.033812
0.033799
0.031700
0.022784
0.022508
0.024064
0.026198
0.030008
0.029794
0.027981
0.027098
0.035264
0.037739
0.034978
0.037443
0.032843
0.032570
0.036449
0.037989
0.024933
0.027431
0.009788
0.031949
0.031759
0.011003
0.035873
0.034017
0.025126
0.036597
0.036556
0.025346
0.019027
0.018737
0.042247
0.044568
0.046193
0.044693
0.030231
0.040353
0.039837
0.033433
0.033761
0.011303
0.033847
0.035734
0.036217
0.023889
0.025317
0.035168
0.022414
0.019895
0.017466
0.017081
0.038398
0.053684
0.051683
0.032968
0.031513
0.030120
0.015171
0.033513
0.032454
0.031102
0.013078
0.032715
0.033090
0.033088
0.033272
0.032902
0.032778
0.032714
0.031320
0.032904
0.034284
0.035666
0.033152
0.032104
0.032138
0.034653
0.036037
0.037422
0.035868
0.036260
0.036222
0.034479
0.034885
0.034838
0.034469
0.033812
0.033693
0.033332
0.033456
0.033278
0.032824
0.033250
0.032630
0.032279
0.029927
0.023427
