# vtk DataFile Version 2.0
Unstructured Grid Example
ASCII
DATASET UNSTRUCTURED_GRID
POINTS 749 float
-0.005614 0.005985 0.000431 
0.494386 0.003082 0.000314 
0.198450 0.704824 -0.000183 
0.698450 0.701921 -0.000301 
0.098450 0.705405 -0.000160 
0.100192 1.005405 -0.000403 
1.600192 0.996696 -0.000755 
1.598450 0.696696 -0.000512 
0.912289 0.500673 -0.000189 
0.998450 0.700179 -0.000371 
0.640146 0.502253 -0.000125 
0.654722 0.552170 -0.000169 
0.897579 0.550760 -0.000226 
1.048450 0.699889 -0.000383 
-0.005572 0.006131 0.180431 
0.494428 0.003228 0.180314 
0.198492 0.704970 0.179817 
0.698492 0.702067 0.179699 
0.098492 0.705551 0.179840 
0.100234 1.005551 0.179597 
1.600234 0.996842 0.179245 
1.598492 0.696842 0.179488 
0.912331 0.500819 0.179811 
0.998492 0.700325 0.179629 
0.640188 0.502399 0.179875 
0.654764 0.552316 0.179831 
0.897622 0.550906 0.179774 
1.048492 0.700035 0.179617 
1.599353 0.846805 0.134366 
1.599332 0.846732 0.044366 
1.599603 0.891769 0.089330 
1.599081 0.801769 0.089403 
0.299353 0.854353 0.134672 
0.299332 0.854280 0.044672 
0.299603 0.899317 0.089635 
0.299081 0.809317 0.089708 
0.119386 0.005260 0.000402 
0.244386 0.004534 0.000373 
0.369386 0.003808 0.000343 
0.019894 0.093340 0.000355 
0.045402 0.180695 0.000278 
0.070910 0.268050 0.000201 
0.096418 0.355405 0.000124 
0.121926 0.442760 0.000047 
0.147434 0.530115 -0.000030 
0.172942 0.617469 -0.000106 
0.148450 0.705115 -0.000171 
0.099321 0.855405 -0.000281 
0.207335 1.004783 -0.000428 
0.314478 1.004161 -0.000453 
0.421621 1.003539 -0.000478 
0.528763 1.002917 -0.000504 
0.635906 1.002294 -0.000529 
0.743049 1.001672 -0.000554 
0.850192 1.001050 -0.000579 
0.957335 1.000428 -0.000604 
1.064478 0.999806 -0.000630 
1.171621 0.999184 -0.000655 
1.278763 0.998562 -0.000680 
1.385906 0.997940 -0.000705 
1.493049 0.997318 -0.000730 
1.599321 0.846696 -0.000634 
0.848450 0.701050 -0.000336 
0.615853 0.419058 -0.000052 
0.591559 0.335863 0.000021 
0.567266 0.252668 0.000094 
0.542973 0.169473 0.000168 
0.518679 0.086278 0.000241 
0.776217 0.501463 -0.000157 
0.980370 0.600281 -0.000286 
0.948015 0.625470 -0.000299 
0.776151 0.551465 -0.000198 
0.676586 0.627046 -0.000235 
1.140117 0.699357 -0.000405 
1.231783 0.698825 -0.000426 
1.323450 0.698292 -0.000448 
1.415117 0.697760 -0.000469 
1.506783 0.697228 -0.000491 
0.119428 0.005406 0.180402 
0.244428 0.004680 0.180373 
0.369428 0.003954 0.180343 
0.019936 0.093486 0.180355 
0.045444 0.180841 0.180278 
0.070952 0.268196 0.180201 
0.096460 0.355551 0.180124 
0.121968 0.442906 0.180047 
0.147476 0.530260 0.179970 
0.172984 0.617615 0.179894 
0.148492 0.705260 0.179829 
0.099363 0.855551 0.179719 
0.207377 1.004929 0.179572 
0.314520 1.004307 0.179547 
0.421663 1.003685 0.179522 
0.528806 1.003062 0.179496 
0.635949 1.002440 0.179471 
0.743091 1.001818 0.179446 
0.850234 1.001196 0.179421 
0.957377 1.000574 0.179396 
1.064520 0.999952 0.179370 
1.171663 0.999330 0.179345 
1.278806 0.998708 0.179320 
1.385949 0.998086 0.179295 
1.493091 0.997464 0.179270 
1.599363 0.846842 0.179366 
0.848492 0.701196 0.179664 
0.615895 0.419204 0.179948 
0.591602 0.336009 0.180021 
0.567308 0.252814 0.180094 
0.543015 0.169619 0.180168 
0.518722 0.086423 0.180241 
0.776260 0.501609 0.179843 
0.980412 0.600427 0.179714 
0.948057 0.625616 0.179701 
0.776193 0.551611 0.179802 
0.676628 0.627192 0.179765 
1.140159 0.699503 0.179595 
1.231826 0.698971 0.179574 
1.323492 0.698438 0.179552 
1.415159 0.697906 0.179531 
1.506826 0.697374 0.179509 
-0.005593 0.006058 0.090431 
0.494407 0.003155 0.090314 
0.198471 0.704897 0.089817 
0.698471 0.701994 0.089699 
0.098471 0.705478 0.089840 
0.100213 1.005478 0.089597 
1.600213 0.996769 0.089245 
1.598471 0.696769 0.089488 
0.912310 0.500746 0.089811 
0.998471 0.700252 0.089629 
0.640167 0.502326 0.089875 
0.654743 0.552243 0.089831 
0.897600 0.550833 0.089774 
1.048471 0.699962 0.089617 
1.599165 0.814975 0.121212 
1.599150 0.814923 0.057572 
1.599519 0.878563 0.057521 
1.599534 0.878614 0.121160 
0.299519 0.886111 0.057826 
0.299150 0.822471 0.057878 
0.299165 0.822523 0.121517 
0.299534 0.886162 0.121466 
1.506496 0.847344 0.134388 
1.413638 0.847883 0.134410 
1.320781 0.848423 0.134432 
1.227924 0.848962 0.134453 
1.135067 0.849501 0.134475 
1.042210 0.850040 0.134497 
0.949353 0.850579 0.134519 
0.856496 0.851118 0.134541 
0.763638 0.851657 0.134563 
0.670781 0.852197 0.134584 
0.577924 0.852736 0.134606 
0.485067 0.853275 0.134628 
0.392210 0.853814 0.134650 
1.506746 0.892308 0.089351 
1.413889 0.892847 0.089373 
1.321032 0.893386 0.089395 
1.228175 0.893925 0.089417 
1.135318 0.894464 0.089439 
1.042461 0.895004 0.089461 
0.949603 0.895543 0.089482 
0.856746 0.896082 0.089504 
0.763889 0.896621 0.089526 
0.671032 0.897160 0.089548 
0.578175 0.897699 0.089570 
0.485318 0.898238 0.089592 
0.392461 0.898777 0.089613 
1.506474 0.847271 0.044388 
1.413617 0.847810 0.044410 
1.320760 0.848350 0.044432 
1.227903 0.848889 0.044453 
1.135046 0.849428 0.044475 
1.042189 0.849967 0.044497 
0.949332 0.850506 0.044519 
0.856474 0.851045 0.044541 
0.763617 0.851584 0.044563 
0.670760 0.852124 0.044584 
0.577903 0.852663 0.044606 
0.485046 0.853202 0.044628 
0.392189 0.853741 0.044650 
1.506224 0.802308 0.089424 
1.413367 0.802847 0.089446 
1.320509 0.803386 0.089468 
1.227652 0.803925 0.089490 
1.134795 0.804464 0.089512 
1.041938 0.805004 0.089534 
0.949081 0.805543 0.089555 
0.856224 0.806082 0.089577 
0.763367 0.806621 0.089599 
0.670509 0.807160 0.089621 
0.577652 0.807699 0.089643 
0.484795 0.808238 0.089665 
0.391938 0.808777 0.089686 
1.599943 0.948618 0.129600 
1.598761 0.744985 0.129765 
1.598742 0.744919 0.049133 
1.599921 0.947997 0.049757 
1.598945 0.781206 0.019450 
1.598978 0.781319 0.159389 
1.599699 0.911067 0.018452 
1.599739 0.912332 0.159283 
1.599149 0.815743 0.031907 
1.599176 0.815836 0.146875 
1.599504 0.876972 0.030855 
1.599536 0.877795 0.146825 
1.599712 0.909284 0.120496 
1.598986 0.784198 0.120680 
1.598971 0.784147 0.058153 
1.599691 0.908241 0.055431 
1.598815 0.755962 0.089440 
1.599864 0.936616 0.088550 
0.343672 0.836831 0.117425 
1.554825 0.829799 0.117141 
0.717074 0.829409 0.112092 
0.809931 0.828870 0.112070 
0.902788 0.828330 0.112048 
0.624217 0.829948 0.112114 
1.181360 0.826713 0.111983 
0.438503 0.831026 0.112157 
0.995645 0.827791 0.112026 
0.531360 0.830487 0.112135 
1.088503 0.827252 0.112004 
1.274217 0.826174 0.111961 
1.367074 0.825635 0.111939 
1.459931 0.825096 0.111917 
0.332498 0.821258 0.101816 
1.565810 0.814097 0.101526 
0.343873 0.871331 0.117397 
1.555025 0.864299 0.117113 
0.810192 0.873870 0.112033 
0.717335 0.874409 0.112055 
0.903050 0.873330 0.112012 
0.624478 0.874948 0.112077 
0.995907 0.872791 0.111990 
0.531621 0.875487 0.112099 
0.438764 0.876026 0.112121 
1.181621 0.871713 0.111946 
1.088764 0.872252 0.111968 
1.274478 0.871174 0.111924 
1.367335 0.870635 0.111902 
1.460192 0.870096 0.111881 
0.332880 0.887008 0.101762 
1.566192 0.879847 0.101472 
0.299342 0.854279 0.089822 
0.299241 0.836523 0.097068 
0.299295 0.846910 0.071831 
0.299387 0.861295 0.107759 
0.299445 0.872311 0.082928 
1.554812 0.829754 0.061641 
0.343601 0.826295 0.072434 
0.717063 0.829372 0.067092 
0.809921 0.828833 0.067070 
0.902778 0.828294 0.067048 
0.624206 0.829911 0.067114 
1.088492 0.827216 0.067004 
0.531349 0.830451 0.067135 
0.995635 0.827755 0.067026 
1.181349 0.826677 0.066983 
0.438492 0.830990 0.067157 
1.274206 0.826137 0.066961 
1.367063 0.825598 0.066939 
1.459921 0.825059 0.066917 
1.565804 0.814077 0.077276 
0.332608 0.841971 0.056799 
0.343860 0.871286 0.061897 
1.555076 0.874763 0.072104 
0.717325 0.874372 0.067055 
0.810182 0.873833 0.067033 
0.903039 0.873294 0.067012 
0.624468 0.874911 0.067077 
1.181610 0.871677 0.066946 
0.995896 0.872755 0.066990 
1.088753 0.872216 0.066968 
0.531610 0.875451 0.067099 
0.438753 0.875990 0.067121 
1.274468 0.871137 0.066924 
1.367325 0.870598 0.066902 
1.460182 0.870059 0.066881 
0.332874 0.886988 0.077512 
1.566061 0.859061 0.056489 
0.417421 0.598835 -0.000150 
0.342645 0.365907 0.000057 
0.380538 0.796988 -0.000301 
0.527563 0.719815 -0.000274 
0.537196 0.559051 -0.000146 
1.035406 0.848670 -0.000500 
0.320914 0.685122 -0.000197 
0.435926 0.475727 -0.000055 
0.291831 0.498718 -0.000039 
0.243127 0.193464 0.000220 
0.618669 0.838275 -0.000392 
0.264820 0.779206 -0.000259 
0.429525 0.702661 -0.000237 
1.174058 0.846448 -0.000532 
0.398559 0.212078 0.000168 
1.365969 0.844773 -0.000576 
0.509269 0.841939 -0.000369 
0.493972 0.639281 -0.000201 
0.474028 0.345114 0.000042 
0.590379 0.637755 -0.000223 
0.312530 0.592101 -0.000119 
0.230420 0.365476 0.000084 
0.767929 0.833976 -0.000424 
0.543877 0.461488 -0.000069 
1.098469 0.795902 -0.000473 
0.718992 0.529442 -0.000166 
0.902831 0.906714 -0.000515 
0.935366 0.780249 -0.000421 
0.833184 0.528985 -0.000193 
0.318588 0.891249 -0.000363 
0.261207 0.643241 -0.000148 
0.461506 0.531828 -0.000106 
0.371311 0.514981 -0.000071 
0.398687 0.890046 -0.000381 
0.593473 0.542973 -0.000147 
1.019961 0.768973 -0.000432 
0.626348 0.749578 -0.000322 
0.989285 0.649495 -0.000328 
0.169596 0.111681 0.000304 
0.188314 0.802737 -0.000260 
1.275438 0.789723 -0.000510 
1.465354 0.789849 -0.000556 
0.174425 0.287217 0.000161 
0.339236 0.119088 0.000257 
0.382869 0.652034 -0.000185 
0.935474 0.572306 -0.000253 
0.208801 0.454617 0.000017 
0.476516 0.761517 -0.000296 
0.263720 0.712974 -0.000205 
0.360084 0.443592 -0.000010 
0.199158 0.900599 -0.000342 
0.286037 0.295719 0.000127 
1.101249 0.911587 -0.000567 
1.270594 0.890682 -0.000591 
0.258898 0.567940 -0.000087 
1.458588 0.901642 -0.000645 
0.571810 0.911332 -0.000440 
0.453539 0.150935 0.000204 
0.373090 0.724838 -0.000241 
0.479635 0.251124 0.000117 
0.434844 0.070336 0.000274 
0.287179 0.418073 0.000028 
0.691285 0.905813 -0.000464 
0.617332 0.590097 -0.000191 
0.588342 0.488802 -0.000102 
0.537108 0.385433 -0.000006 
0.554534 0.783242 -0.000332 
0.478903 0.581825 -0.000151 
[...]
POINT_DATA 749
SCALARS u float 1
LOOKUP_TABLE default
0.058337
0.045521
0.035994
0.017653
0.039931
0.038499
0.024101
0.026163
0.019875
0.011385
0.025040
0.023110
0.018083
0.011361
0.058893
0.045768
0.036893
0.018287
0.040848
0.039543
0.023113
0.025109
0.019863
0.011261
0.025490
0.023597
0.018139
0.011045
0.023574
0.024102
0.023596
0.024223
0.031329
0.030841
0.030881
0.031398
0.054687
0.051296
0.048220
0.055129
0.051999
0.048963
0.046038
0.043249
0.040621
0.038190
0.037958
0.038722
0.034115
0.029742
0.025385
0.021055
0.016771
0.012580
0.008623
0.005432
0.004871
0.007551
0.011374
0.015517
0.019781
0.024366
0.013503
0.028332
0.031693
0.035104
0.038551
0.042025
0.021897
0.015390
0.014637
0.020136
0.020305
0.012253
0.014136
0.016676
0.019621
0.022813
0.055184
0.051723
0.048563
0.055718
0.052623
0.049626
0.046743
0.043998
0.041419
0.039038
0.038866
0.039713
0.035160
0.030786
0.026428
0.022095
0.017804
0.013596
0.009580
0.006147
0.004781
0.006855
0.010498
0.014576
0.018810
0.023310
0.013868
0.028730
0.032049
0.035425
0.038843
0.042293
0.022150
0.015266
0.014624
0.020441
0.020858
0.011629
0.013307
0.015733
0.018617
0.021776
0.058613
0.045641
0.036443
0.017965
0.040388
0.039021
0.023606
0.025636
0.019861
0.011310
0.025260
0.023349
0.018103
0.011191
0.023908
0.024283
0.023837
0.023466
0.030753
0.031126
0.031465
0.031105
0.019885
0.016261
0.012759
0.009513
0.006895
0.005825
0.007048
0.009734
0.013007
0.016521
0.020151
0.023844
0.027574
0.019859
0.016166
0.012555
0.009125
0.006185
0.004752
0.006022
0.008904
0.012314
0.015917
0.019606
0.023341
0.027103
0.020411
0.016783
0.013269
0.009990
0.007272
0.005942
0.006862
0.009392
0.012596
0.016077
0.019688
0.023369
0.027092
0.020604
0.017077
0.013715
0.010672
0.008309
0.007317
0.008208
0.010514
0.013530
0.016880
0.020400
0.024015
0.027688
0.023273
0.024665
0.025140
0.023724
0.024857
0.024031
0.023945
0.023132
0.024427
0.023749
0.024000
0.023321
0.023362
0.024226
0.024595
0.023739
0.024754
0.023505
0.029549
0.022045
0.014930
0.011609
0.008715
0.018450
0.008695
0.025757
0.006819
0.022073
0.006810
0.011584
0.014903
0.018422
0.030027
0.022720
0.029342
0.021785
0.010919
0.014398
0.007778
0.018020
0.005579
0.021713
0.025447
0.007771
0.005575
0.010911
0.014389
0.018011
0.029635
0.022234
0.031085
0.031235
0.031032
0.031144
0.030953
0.022371
0.029387
0.014724
0.011429
0.008591
0.018229
0.006943
0.021844
0.006807
0.008911
0.025522
0.011831
0.015161
0.018684
0.022862
0.029636
0.029039
0.021986
0.014174
0.010715
0.007621
0.017786
0.007995
0.005539
0.005712
0.021473
0.025204
0.011160
0.014647
0.018272
0.029502
0.022615
0.029507
0.037663
0.027788
0.023193
0.026415
0.006034
0.031515
0.031802
0.036061
0.045530
0.018015
0.032561
0.027126
0.008587
0.040604
0.015259
0.022262
0.025964
0.034406
0.022721
0.033407
0.041272
0.012513
0.028934
0.008289
0.022177
0.006886
0.009145
0.019852
0.029636
0.034431
0.029545
0.032959
0.026388
0.025129
0.008728
0.019066
0.013400
0.050075
0.035429
0.012964
0.019736
0.045081
0.045135
0.029725
0.016830
0.039925
0.024458
0.033339
0.035067
0.034475
0.041336
0.005460
0.011183
0.035823
0.018410
0.019314
0.041225
0.028941
0.037247
0.044418
0.038097
0.014599
0.023100
0.026863
0.031443
0.021175
0.027762
0.015785
0.034641
0.048849
0.038056
0.027667
0.037961
0.020196
0.047970
0.004591
0.034558
0.010829
0.016660
0.010178
0.025159
0.028787
0.021617
0.009969
0.030816
0.025334
0.014008
0.031698
0.022936
0.024553
0.013883
0.023937
0.010170
0.031572
0.023178
0.042125
0.027113
0.025018
0.033985
0.012690
0.031975
0.019768
0.023166
0.008250
0.029810
0.032202
0.030567
0.006803
0.028260
0.043115
0.021642
0.031457
0.026662
0.039525
0.010182
0.006652
0.038211
0.052174
0.036400
0.033919
0.036323
0.020076
0.030313
0.038211
0.028790
0.024018
0.026957
0.005857
0.032369
0.032507
0.036815
0.046159
0.018869
0.033485
0.028013
0.007740
0.041008
0.014271
0.023192
0.026699
0.034941
0.023389
0.034092
0.041944
0.013297
0.029508
0.007717
0.022550
0.007614
0.009393
0.020027
0.030631
0.035188
0.030261
0.033637
0.027376
0.025675
0.008592
0.019828
0.013276
0.050645
0.036460
0.012037
0.018685
0.045731
0.045559
0.030558
0.016810
0.040649
0.025331
0.034217
0.035657
0.035549
0.041936
0.004838
0.010225
0.036576
0.017378
0.020260
0.041581
0.029815
0.037630
0.044746
0.038750
0.015507
0.023700
0.027374
0.031894
0.021953
0.028447
0.016592
0.035245
0.049497
0.038584
0.028445
0.038824
0.020873
0.048520
0.004933
0.035487
0.010086
0.015669
0.011066
0.025815
0.029410
0.020595
0.010566
0.031740
0.026164
0.013033
0.032429
0.023927
0.025146
0.014524
0.024685
0.010256
0.032170
0.022120
0.042677
0.027675
0.025974
0.034397
0.012503
0.032761
0.019875
0.023571
0.007352
0.030787
0.033199
0.031267
0.007138
0.029282
0.043815
0.022394
0.032486
0.027572
0.040164
0.009732
0.006071
0.038986
0.052757
0.037391
0.034645
0.037359
0.020972
0.033514
0.040636
0.029824
0.036984
0.043401
0.027385
0.027195
0.043472
0.022846
0.020901
0.020837
0.014160
0.017412
0.017391
0.015276
0.013010
0.012949
0.015562
0.015759
0.012135
0.012191
0.013671
0.020646
0.019457
0.021501
0.019587
0.021707
0.021545
0.012605
0.017644
0.020981
0.014878
0.011467
0.023321
0.023790
0.011601
0.032336
0.028070
0.023736
0.019423
0.015171
0.011052
0.007293
0.004826
0.005698
0.008984
0.012963
0.017033
0.020568
0.036047
0.036830
0.021925
0.053101
0.049993
0.047360
0.056227
0.054058
0.047804
0.039619
0.044907
0.050822
0.042240
0.037945
0.056618
0.056593
0.037541
0.038161
0.039503
0.037697
0.038965
0.038798
0.039182
0.039509
0.039868
0.039217
0.010015
0.031471
0.031176
0.028726
0.033682
0.030489
0.030303
0.029986
0.026614
0.029008
0.027738
0.029364
0.029026
0.034395
0.034143
0.032153
0.031919
0.032909
0.032045
0.033988
0.032583
0.024310
0.028220
0.037947
0.036714
0.025226
0.026348
0.012733
0.021526
0.021218
0.024094
0.023773
0.034165
0.034747
0.034397
0.026711
0.026380
0.039908
0.039099
0.014800
0.040612
0.040064
0.038321
0.036103
0.038075
0.036924
0.037464
0.037110
0.033812
0.033799
0.031700
0.022784
0.022508
0.024064
0.026198
0.030008
0.029794
0.027981
0.027098
0.035264
0.037739
0.034978
0.037443
0.032843
0.032570
0.036449
0.037989
0.024933
0.027431
0.009788
0.031949
0.031759
0.011003
0.035873
0.034017
0.025126
0.036597
0.036556
0.025346
0.019027
0.018737
0.042247
0.044568
0.046193
0.044693
0.030231
0.040353
0.039837
0.033433
0.033761
0.011303
0.033847
0.035734
0.036217
0.023889
0.025317
0.035168
0.022414
0.019895
0.017466
0.017081
0.038398
0.053684
0.051683
0.032968
0.031513
0.030120
0.015171
0.033513
0.032454
0.031102
0.013078
0.032715
0.033090
0.033088
0.033272
0.032902
0.032778
0.032714
0.031320
0.032904
0.034284
0.035666
0.033152
0.032104
0.032138
0.034653
0.036037
0.037422
0.035868
0.036260
0.036222
0.034479
0.034885
0.034838
0.034469
0.033812
0.033693
0.033332
0.033456
0.033278
0.032824
0.033250
0.032630
0.032279
0.029927
0.023427
