# vtk DataFile Version 2.0
Unstructured Grid Example
ASCII
DATASET UNSTRUCTURED_GRID
POINTS 749 float
-0.017257 0.018399 0.001326 
0.482743 0.009475 0.000965 
0.195236 0.714829 -0.000563 
0.695236 0.705906 -0.000924 
0.095236 0.716614 -0.000491 
0.100590 1.016614 -0.001238 
1.600590 0.989843 -0.002322 
1.595236 0.689843 -0.001575 
0.906666 0.502068 -0.000581 
0.995236 0.700551 -0.001141 
0.634523 0.506925 -0.000385 
0.649702 0.556670 -0.000519 
0.892559 0.552336 -0.000695 
1.045236 0.699659 -0.001177 
-0.017127 0.018847 0.181326 
0.482873 0.009924 0.180965 
0.195366 0.715278 0.179437 
0.695366 0.706354 0.179076 
0.095366 0.717063 0.179509 
0.100720 1.017063 0.178762 
1.600720 0.990291 0.177678 
1.595366 0.690291 0.178425 
0.906796 0.502517 0.179419 
0.995366 0.701000 0.178859 
0.634654 0.507374 0.179615 
0.649832 0.557119 0.179481 
0.892689 0.552785 0.179305 
1.045366 0.700108 0.178823 
1.598010 0.840179 0.133052 
1.597945 0.839955 0.043052 
1.598781 0.885067 0.087939 
1.597175 0.795067 0.088164 
0.298010 0.863381 0.133991 
0.297945 0.863157 0.043991 
0.298781 0.908269 0.088879 
0.297175 0.818269 0.089103 
0.107743 0.016168 0.001236 
0.232743 0.013937 0.001145 
0.357743 0.011706 0.001055 
0.009304 0.105453 0.001090 
0.035866 0.192506 0.000854 
0.062428 0.279560 0.000618 
0.088989 0.366614 0.000382 
0.115551 0.453668 0.000145 
0.142113 0.540722 -0.000091 
0.168674 0.627776 -0.000327 
0.145236 0.715722 -0.000527 
0.097913 0.866614 -0.000865 
0.207733 1.014702 -0.001316 
0.314876 1.012790 -0.001393 
0.422019 1.010877 -0.001471 
0.529161 1.008965 -0.001548 
0.636304 1.007053 -0.001626 
0.743447 1.005141 -0.001703 
0.850590 1.003228 -0.001780 
0.957733 1.001316 -0.001858 
1.064876 0.999404 -0.001935 
1.172019 0.997492 -0.002013 
1.279161 0.995580 -0.002090 
1.386304 0.993667 -0.002167 
1.493447 0.991755 -0.002245 
1.597913 0.839843 -0.001948 
0.845236 0.703228 -0.001033 
0.609227 0.424017 -0.000160 
0.583930 0.341109 0.000065 
0.558633 0.258200 0.000290 
0.533336 0.175292 0.000515 
0.508039 0.092383 0.000740 
0.770595 0.504497 -0.000483 
0.975951 0.600864 -0.000879 
0.943897 0.626444 -0.000918 
0.771130 0.554503 -0.000607 
0.672469 0.631288 -0.000722 
1.136902 0.698023 -0.001243 
1.228569 0.696387 -0.001310 
1.320236 0.694751 -0.001376 
1.411902 0.693115 -0.001442 
1.503569 0.691479 -0.001508 
0.107873 0.016617 0.181236 
0.232873 0.014386 0.181145 
0.357873 0.012155 0.181055 
0.009434 0.105901 0.181090 
0.035996 0.192955 0.180854 
0.062558 0.280009 0.180618 
0.089119 0.367063 0.180382 
0.115681 0.454117 0.180145 
0.142243 0.541170 0.179909 
0.168804 0.628224 0.179673 
0.145366 0.716170 0.179473 
0.098043 0.867063 0.179135 
0.207863 1.015150 0.178684 
0.315006 1.013238 0.178607 
0.422149 1.011326 0.178529 
0.529292 1.009414 0.178452 
0.636434 1.007502 0.178374 
0.743577 1.005589 0.178297 
0.850720 1.003677 0.178220 
0.957863 1.001765 0.178142 
1.065006 0.999853 0.178065 
1.172149 0.997940 0.177987 
1.279292 0.996028 0.177910 
1.386434 0.994116 0.177833 
1.493577 0.992204 0.177755 
1.598043 0.840291 0.178052 
0.845366 0.703677 0.178967 
0.609357 0.424466 0.179840 
0.584060 0.341557 0.180065 
0.558763 0.258649 0.180290 
0.533466 0.175740 0.180515 
0.508169 0.092832 0.180740 
0.770725 0.504946 0.179517 
0.976081 0.601312 0.179121 
0.944027 0.626892 0.179082 
0.771260 0.554952 0.179393 
0.672599 0.631737 0.179278 
1.137033 0.698472 0.178757 
1.228699 0.696836 0.178690 
1.320366 0.695200 0.178624 
1.412033 0.693564 0.178558 
1.503699 0.691927 0.178492 
-0.017192 0.018623 0.091326 
0.482808 0.009699 0.090965 
0.195301 0.715054 0.089437 
0.695301 0.706130 0.089076 
0.095301 0.716838 0.089509 
0.100655 1.016838 0.088762 
1.600655 0.990067 0.087678 
1.595301 0.690067 0.088425 
0.906731 0.502293 0.089419 
0.995301 0.700776 0.088859 
0.634588 0.507150 0.089615 
0.649767 0.556895 0.089481 
0.892624 0.552560 0.089305 
1.045301 0.699883 0.088823 
1.597433 0.808327 0.119951 
1.597387 0.808168 0.056311 
1.598523 0.871808 0.056152 
1.598569 0.871966 0.119792 
0.298523 0.895009 0.057092 
0.297387 0.831370 0.057250 
0.297433 0.831528 0.120890 
0.298569 0.895168 0.120731 
1.505153 0.841837 0.133119 
1.412296 0.843494 0.133186 
1.319439 0.845151 0.133253 
1.226582 0.846808 0.133320 
1.133725 0.848466 0.133387 
1.040868 0.850123 0.133454 
0.948010 0.851780 0.133521 
0.855153 0.853437 0.133588 
0.762296 0.855095 0.133655 
0.669439 0.856752 0.133723 
0.576582 0.858409 0.133790 
0.483725 0.860067 0.133857 
0.390868 0.861724 0.133924 
1.505924 0.886724 0.088007 
1.413067 0.888382 0.088074 
1.320210 0.890039 0.088141 
1.227353 0.891696 0.088208 
1.134495 0.893354 0.088275 
1.041638 0.895011 0.088342 
0.948781 0.896668 0.088409 
0.855924 0.898325 0.088476 
0.763067 0.899983 0.088543 
0.670210 0.901640 0.088610 
0.577353 0.903297 0.088677 
0.484495 0.904954 0.088745 
0.391638 0.906612 0.088812 
1.505088 0.841612 0.043119 
1.412231 0.843270 0.043186 
1.319374 0.844927 0.043253 
1.226517 0.846584 0.043320 
1.133660 0.848241 0.043387 
1.040803 0.849899 0.043454 
0.947945 0.851556 0.043521 
0.855088 0.853213 0.043588 
0.762231 0.854870 0.043655 
0.669374 0.856528 0.043723 
0.576517 0.858185 0.043790 
0.483660 0.859842 0.043857 
0.390803 0.861499 0.043924 
1.504318 0.796724 0.088231 
1.411461 0.798382 0.088298 
1.318603 0.800039 0.088365 
1.225746 0.801696 0.088432 
1.132889 0.803354 0.088499 
1.040032 0.805011 0.088566 
0.947175 0.806668 0.088633 
0.854318 0.808325 0.088700 
0.761461 0.809983 0.088768 
0.668603 0.811640 0.088835 
0.575746 0.813297 0.088902 
0.482889 0.814954 0.088969 
0.390032 0.816612 0.089036 
1.599824 0.941984 0.128114 
1.596190 0.738351 0.128621 
1.596132 0.738150 0.047989 
1.599757 0.941229 0.048272 
1.596758 0.774386 0.018245 
1.596859 0.774735 0.158184 
1.599075 0.904246 0.017029 
1.599198 0.905748 0.157858 
1.597384 0.808944 0.030645 
1.597467 0.809231 0.145613 
1.598476 0.870172 0.029490 
1.598572 0.871190 0.145458 
1.599116 0.902635 0.119077 
1.596883 0.777549 0.119471 
1.596838 0.777393 0.056944 
1.599051 0.901483 0.054013 
1.596357 0.749261 0.088278 
1.599581 0.929913 0.087084 
0.342114 0.845295 0.116752 
1.553266 0.823679 0.115877 
0.715450 0.833367 0.111245 
0.808307 0.831710 0.111178 
0.901164 0.830053 0.111111 
0.622593 0.835025 0.111312 
1.179736 0.825081 0.110910 
0.436878 0.838339 0.111446 
0.994021 0.828395 0.111044 
0.529736 0.836682 0.111379 
1.086878 0.826738 0.110977 
1.272593 0.823424 0.110842 
1.365450 0.821766 0.110775 
1.458307 0.820109 0.110708 
0.330744 0.829829 0.101174 
1.564056 0.807818 0.100283 
0.342730 0.879795 0.116666 
1.553882 0.858179 0.115791 
0.809110 0.876710 0.111066 
0.716253 0.878367 0.111133 
0.901967 0.875053 0.110999 
0.623396 0.880025 0.111200 
0.994824 0.873395 0.110932 
0.530539 0.881682 0.111267 
0.437682 0.883339 0.111334 
1.180539 0.870081 0.110797 
1.087682 0.871738 0.110865 
1.273396 0.868424 0.110730 
1.366253 0.866766 0.110663 
1.459110 0.865109 0.110596 
0.331918 0.895579 0.101010 
1.565229 0.873568 0.100119 
0.297977 0.863231 0.089141 
0.297666 0.845488 0.096417 
0.297833 0.855832 0.071163 
0.298115 0.870278 0.107067 
0.298294 0.881252 0.082217 
1.553226 0.823541 0.060377 
0.341894 0.834683 0.071778 
0.715417 0.833255 0.066245 
0.808274 0.831598 0.066178 
0.901132 0.829941 0.066111 
0.622560 0.834912 0.066312 
1.086846 0.826626 0.065977 
0.529703 0.836570 0.066379 
0.993989 0.828283 0.066044 
1.179703 0.824969 0.065910 
0.436846 0.838227 0.066446 
1.272560 0.823312 0.065842 
1.365417 0.821654 0.065775 
1.458274 0.819997 0.065708 
1.564038 0.807757 0.076033 
0.331082 0.850467 0.056122 
0.342690 0.879657 0.061166 
1.554037 0.868567 0.070765 
0.716220 0.878255 0.066133 
0.809078 0.876598 0.066066 
0.901935 0.874941 0.065999 
0.623363 0.879912 0.066200 
1.180506 0.869969 0.065797 
0.994792 0.873283 0.065932 
1.087649 0.871626 0.065865 
0.530506 0.881570 0.066267 
0.437649 0.883227 0.066334 
1.273363 0.868312 0.065730 
1.366220 0.866654 0.065663 
1.459078 0.864997 0.065596 
0.331900 0.895519 0.076760 
1.564826 0.852705 0.055170 
0.412946 0.606197 -0.000461 
0.335360 0.374152 0.000174 
0.378446 0.804807 -0.000927 
0.524553 0.725858 -0.000843 
0.532250 0.564967 -0.000450 
1.033982 0.848607 -0.001538 
0.317471 0.693651 -0.000604 
0.429970 0.482856 -0.000168 
0.286141 0.507585 -0.000119 
0.233758 0.202895 0.000676 
0.617091 0.843229 -0.001205 
0.262506 0.788417 -0.000797 
0.426301 0.709883 -0.000728 
1.172617 0.844715 -0.001634 
0.389426 0.219639 0.000515 
1.364521 0.840730 -0.001772 
0.507728 0.848211 -0.001133 
0.489989 0.645723 -0.000618 
0.466502 0.351775 0.000129 
0.586384 0.643036 -0.000685 
0.307966 0.600725 -0.000367 
0.223122 0.375073 0.000258 
0.766309 0.837133 -0.001304 
0.537757 0.467317 -0.000212 
1.096414 0.795076 -0.001453 
0.713702 0.533167 -0.000510 
0.902097 0.908252 -0.001584 
0.933111 0.781386 -0.001294 
0.827897 0.531335 -0.000593 
0.317626 0.899820 -0.001115 
0.257255 0.652486 -0.000456 
0.456227 0.538653 -0.000326 
0.365823 0.522891 -0.000218 
0.397717 0.897653 -0.001171 
0.588337 0.548210 -0.000451 
1.017576 0.769091 -0.001328 
0.623702 0.754433 -0.000990 
0.985460 0.649974 -0.001008 
0.159238 0.121992 0.000934 
0.186278 0.812871 -0.000799 
1.273321 0.786766 -0.001568 
1.463252 0.784605 -0.001708 
0.166180 0.297482 0.000494 
0.328978 0.127357 0.000791 
0.379032 0.659815 -0.000568 
0.930716 0.573428 -0.000776 
0.202575 0.464480 0.000052 
0.474004 0.768178 -0.000909 
0.260608 0.722194 -0.000631 
0.353735 0.451632 -0.000032 
0.198301 0.910610 -0.001051 
0.277902 0.304641 0.000390 
1.100587 0.910736 -0.001743 
1.269693 0.887790 -0.001816 
0.254040 0.577207 -0.000267 
1.457831 0.896488 -0.001981 
0.571109 0.916856 -0.001352 
0.443673 0.157830 0.000627 
0.370129 0.732742 -0.000742 
0.470977 0.257712 0.000359 
0.424006 0.077450 0.000841 
0.280518 0.426990 0.000085 
0.690525 0.909898 -0.001426 
0.612765 0.595050 -0.000586 
0.582554 0.494097 -0.000313 
0.530072 0.391338 -0.000018 
0.552289 0.788965 -0.001021 
0.474227 0.588444 -0.000464 
[...]
POINT_DATA 749
SCALARS u float 1
LOOKUP_TABLE default
0.058337
0.045521
0.035994
0.017653
0.039931
0.038499
0.024101
0.026163
0.019875
0.011385
0.025040
0.023110
0.018083
0.011361
0.058893
0.045768
0.036893
0.018287
0.040848
0.039543
0.023113
0.025109
0.019863
0.011261
0.025490
0.023597
0.018139
0.011045
0.023574
0.024102
0.023596
0.024223
0.031329
0.030841
0.030881
0.031398
0.054687
0.051296
0.048220
0.055129
0.051999
0.048963
0.046038
0.043249
0.040621
0.038190
0.037958
0.038722
0.034115
0.029742
0.025385
0.021055
0.016771
0.012580
0.008623
0.005432
0.004871
0.007551
0.011374
0.015517
0.019781
0.024366
0.013503
0.028332
0.031693
0.035104
0.038551
0.042025
0.021897
0.015390
0.014637
0.020136
0.020305
0.012253
0.014136
0.016676
0.019621
0.022813
0.055184
0.051723
0.048563
0.055718
0.052623
0.049626
0.046743
0.043998
0.041419
0.039038
0.038866
0.039713
0.035160
0.030786
0.026428
0.022095
0.017804
0.013596
0.009580
0.006147
0.004781
0.006855
0.010498
0.014576
0.018810
0.023310
0.013868
0.028730
0.032049
0.035425
0.038843
0.042293
0.022150
0.015266
0.014624
0.020441
0.020858
0.011629
0.013307
0.015733
0.018617
0.021776
0.058613
0.045641
0.036443
0.017965
0.040388
0.039021
0.023606
0.025636
0.019861
0.011310
0.025260
0.023349
0.018103
0.011191
0.023908
0.024283
0.023837
0.023466
0.030753
0.031126
0.031465
0.031105
0.019885
0.016261
0.012759
0.009513
0.006895
0.005825
0.007048
0.009734
0.013007
0.016521
0.020151
0.023844
0.027574
0.019859
0.016166
0.012555
0.009125
0.006185
0.004752
0.006022
0.008904
0.012314
0.015917
0.019606
0.023341
0.027103
0.020411
0.016783
0.013269
0.009990
0.007272
0.005942
0.006862
0.009392
0.012596
0.016077
0.019688
0.023369
0.027092
0.020604
0.017077
0.013715
0.010672
0.008309
0.007317
0.008208
0.010514
0.013530
0.016880
0.020400
0.024015
0.027688
0.023273
0.024665
0.025140
0.023724
0.024857
0.024031
0.023945
0.023132
0.024427
0.023749
0.024000
0.023321
0.023362
0.024226
0.024595
0.023739
0.024754
0.023505
0.029549
0.022045
0.014930
0.011609
0.008715
0.018450
0.008695
0.025757
0.006819
0.022073
0.006810
0.011584
0.014903
0.018422
0.030027
0.022720
0.029342
0.021785
0.010919
0.014398
0.007778
0.018020
0.005579
0.021713
0.025447
0.007771
0.005575
0.010911
0.014389
0.018011
0.029635
0.022234
0.031085
0.031235
0.031032
0.031144
0.030953
0.022371
0.029387
0.014724
0.011429
0.008591
0.018229
0.006943
0.021844
0.006807
0.008911
0.025522
0.011831
0.015161
0.018684
0.022862
0.029636
0.029039
0.021986
0.014174
0.010715
0.007621
0.017786
0.007995
0.005539
0.005712
0.021473
0.025204
0.011160
0.014647
0.018272
0.029502
0.022615
0.029507
0.037663
0.027788
0.023193
0.026415
0.006034
0.031515
0.031802
0.036061
0.045530
0.018015
0.032561
0.027126
0.008587
0.040604
0.015259
0.022262
0.025964
0.034406
0.022721
0.033407
0.041272
0.012513
0.028934
0.008289
0.022177
0.006886
0.009145
0.019852
0.029636
0.034431
0.029545
0.032959
0.026388
0.025129
0.008728
0.019066
0.013400
0.050075
0.035429
0.012964
0.019736
0.045081
0.045135
0.029725
0.016830
0.039925
0.024458
0.033339
0.035067
0.034475
0.041336
0.005460
0.011183
0.035823
0.018410
0.019314
0.041225
0.028941
0.037247
0.044418
0.038097
0.014599
0.023100
0.026863
0.031443
0.021175
0.027762
0.015785
0.034641
0.048849
0.038056
0.027667
0.037961
0.020196
0.047970
0.004591
0.034558
0.010829
0.016660
0.010178
0.025159
0.028787
0.021617
0.009969
0.030816
0.025334
0.014008
0.031698
0.022936
0.024553
0.013883
0.023937
0.010170
0.031572
0.023178
0.042125
0.027113
0.025018
0.033985
0.012690
0.031975
0.019768
0.023166
0.008250
0.029810
0.032202
0.030567
0.006803
0.028260
0.043115
0.021642
0.031457
0.026662
0.039525
0.010182
0.006652
0.038211
0.052174
0.036400
0.033919
0.036323
0.020076
0.030313
0.038211
0.028790
0.024018
0.026957
0.005857
0.032369
0.032507
0.036815
0.046159
0.018869
0.033485
0.028013
0.007740
0.041008
0.014271
0.023192
0.026699
0.034941
0.023389
0.034092
0.041944
0.013297
0.029508
0.007717
0.022550
0.007614
0.009393
0.020027
0.030631
0.035188
0.030261
0.033637
0.027376
0.025675
0.008592
0.019828
0.013276
0.050645
0.036460
0.012037
0.018685
0.045731
0.045559
0.030558
0.016810
0.040649
0.025331
0.034217
0.035657
0.035549
0.041936
0.004838
0.010225
0.036576
0.017378
0.020260
0.041581
0.029815
0.037630
0.044746
0.038750
0.015507
0.023700
0.027374
0.031894
0.021953
0.028447
0.016592
0.035245
0.049497
0.038584
0.028445
0.038824
0.020873
0.048520
0.004933
0.035487
0.010086
0.015669
0.011066
0.025815
0.029410
0.020595
0.010566
0.031740
0.026164
0.013033
0.032429
0.023927
0.025146
0.014524
0.024685
0.010256
0.032170
0.022120
0.042677
0.027675
0.025974
0.034397
0.012503
0.032761
0.019875
0.023571
0.007352
0.030787
0.033199
0.031267
0.007138
0.029282
0.043815
0.022394
0.032486
0.027572
0.040164
0.009732
0.006071
0.038986
0.052757
0.037391
0.034645
0.037359
0.020972
0.033514
0.040636
0.029824
0.036984
0.043401
0.027385
0.027195
0.043472
0.022846
0.020901
0.020837
0.014160
0.017412
0.017391
0.015276
0.013010
0.012949
0.015562
0.015759
0.012135
0.012191
0.013671
0.020646
0.019457
0.021501
0.019587
0.021707
0.021545
0.012605
0.017644
0.020981
0.014878
0.011467
0.023321
0.023790
0.011601
0.032336
0.028070
0.023736
0.019423
0.015171
0.011052
0.007293
0.004826
0.005698
0.008984
0.012963
0.017033
0.020568
0.036047
0.036830
0.021925
0.053101
0.049993
0.047360
0.056227
0.054058
0.047804
0.039619
0.044907
0.050822
0.042240
0.037945
0.056618
0.056593
0.037541
0.038161
0.039503
0.037697
0.038965
0.038798
0.039182
0.039509
0.039868
0.039217
0.010015
0.031471
0.031176
0.028726
0.033682
0.030489
0.030303
0.029986
0.026614
0.029008
0.027738
0.029364
0.029026
0.034395
0.034143
0.032153
0.031919
0.032909
0.032045
0.033988
0.032583
0.024310
0.028220
0.037947
0.036714
0.025226
0.026348
0.012733
0.021526
0.021218
0.024094
0.023773
0.034165
0.034747
0.034397
0.026711
0.026380
0.039908
0.039099
0.014800
0.040612
0.040064
0.038321
0.036103
0.038075
0.036924
0.037464
0.037110
0.033812
0.033799
0.031700
0.022784
0.022508
0.024064
0.026198
0.030008
0.029794
0.027981
0.027098
0.035264
0.037739
0.034978
0.037443
0.032843
0.032570
0.036449
0.037989
0.024933
0.027431
0.009788
0.031949
0.031759
0.011003
0.035873
0.034017
0.025126
0.036597
0.036556
0.025346
0.019027
0.018737
0.042247
0.044568
0.046193
0.044693
0.030231
0.040353
0.039837
0.033433
0.033761
0.011303
0.033847
0.035734
0.036217
0.023889
0.025317
0.035168
0.022414
0.019895
0.017466
0.017081
0.038398
0.053684
0.051683
0.032968
0.031513
0.030120
0.015171
0.033513
0.032454
0.031102
0.013078
0.032715
0.033090
0.033088
0.033272
0.032902
0.032778
0.032714
0.031320
0.032904
0.034284
0.035666
0.033152
0.032104
0.032138
0.034653
0.036037
0.037422
0.035868
0.036260
0.036222
0.034479
0.034885
0.034838
0.034469
0.033812
0.033693
0.033332
0.033456
0.033278
0.032824
0.033250
0.032630
0.032279
0.029927
0.023427
