# vtk DataFile Version 2.0
Unstructured Grid Example
ASCII
DATASET UNSTRUCTURED_GRID
POINTS 749 float
0.005614 -0.005985 -0.000431 
0.505614 -0.003082 -0.000314 
0.201550 0.695176 0.000183 
0.701550 0.698079 0.000301 
0.101550 0.694595 0.000160 
0.099808 0.994595 0.000403 
1.599808 1.003304 0.000755 
1.601550 0.703304 0.000512 
0.917711 0.499327 0.000189 
1.001550 0.699821 0.000371 
0.645568 0.497747 0.000125 
0.659564 0.547830 0.000169 
0.902421 0.549240 0.000226 
1.051550 0.700111 0.000383 
0.005572 -0.006131 0.179569 
0.505572 -0.003228 0.179686 
0.201508 0.695030 0.180183 
0.701508 0.697933 0.180301 
0.101508 0.694449 0.180160 
0.099766 0.994449 0.180403 
1.599766 1.003158 0.180755 
1.601508 0.703158 0.180512 
0.917669 0.499181 0.180189 
1.001508 0.699675 0.180371 
0.645526 0.497601 0.180125 
0.659521 0.547684 0.180169 
0.902378 0.549094 0.180226 
1.051508 0.699965 0.180383 
1.600647 0.853195 0.135634 
1.600668 0.853268 0.045634 
1.600397 0.898231 0.090670 
1.600919 0.808231 0.090597 
0.300647 0.845647 0.135328 
0.300668 0.845720 0.045328 
0.300397 0.890683 0.090365 
0.300919 0.800683 0.090292 
0.130614 -0.005260 -0.000402 
0.255614 -0.004534 -0.000373 
0.380614 -0.003808 -0.000343 
0.030106 0.081660 -0.000355 
0.054598 0.169305 -0.000278 
0.079090 0.256950 -0.000201 
0.103582 0.344595 -0.000124 
0.128074 0.432240 -0.000047 
0.152566 0.519885 0.000030 
0.177058 0.607531 0.000106 
0.151550 0.694885 0.000171 
0.100679 0.844595 0.000281 
0.206951 0.995217 0.000428 
0.314094 0.995839 0.000453 
0.421237 0.996461 0.000478 
0.528379 0.997083 0.000504 
0.635522 0.997706 0.000529 
0.742665 0.998328 0.000554 
0.849808 0.998950 0.000579 
0.956951 0.999572 0.000604 
1.064094 1.000194 0.000630 
1.171237 1.000816 0.000655 
1.278379 1.001438 0.000680 
1.385522 1.002060 0.000705 
1.492665 1.002682 0.000730 
1.600679 0.853304 0.000634 
0.851550 0.698950 0.000336 
0.622243 0.414275 0.000052 
0.598917 0.330804 -0.000021 
0.575591 0.247332 -0.000094 
0.552265 0.163861 -0.000168 
0.528940 0.080389 -0.000241 
0.781640 0.498537 0.000157 
0.984630 0.599719 0.000286 
0.951985 0.624530 0.000299 
0.780992 0.548535 0.000198 
0.680557 0.622954 0.000235 
1.143217 0.700643 0.000405 
1.234883 0.701175 0.000426 
1.326550 0.701708 0.000448 
1.418217 0.702240 0.000469 
1.509883 0.702772 0.000491 
0.130572 -0.005406 0.179598 
0.255572 -0.004680 0.179627 
0.380572 -0.003954 0.179657 
0.030064 0.081514 0.179645 
0.054556 0.169159 0.179722 
0.079048 0.256804 0.179799 
0.103540 0.344449 0.179876 
0.128032 0.432094 0.179953 
0.152524 0.519740 0.180030 
0.177016 0.607385 0.180106 
0.151508 0.694740 0.180171 
0.100637 0.844449 0.180281 
0.206909 0.995071 0.180428 
0.314051 0.995693 0.180453 
0.421194 0.996315 0.180478 
0.528337 0.996938 0.180504 
0.635480 0.997560 0.180529 
0.742623 0.998182 0.180554 
0.849766 0.998804 0.180579 
0.956909 0.999426 0.180604 
1.064051 1.000048 0.180630 
1.171194 1.000670 0.180655 
1.278337 1.001292 0.180680 
1.385480 1.001914 0.180705 
1.492623 1.002536 0.180730 
1.600637 0.853158 0.180634 
0.851508 0.698804 0.180336 
0.622200 0.414130 0.180052 
0.598875 0.330658 0.179979 
0.575549 0.247186 0.179906 
0.552223 0.163715 0.179832 
0.528898 0.080243 0.179759 
0.781597 0.498391 0.180157 
0.984588 0.599573 0.180286 
0.951943 0.624384 0.180299 
0.780950 0.548389 0.180198 
0.680514 0.622808 0.180235 
1.143174 0.700497 0.180405 
1.234841 0.701029 0.180426 
1.326508 0.701562 0.180448 
1.418174 0.702094 0.180469 
1.509841 0.702626 0.180491 
0.005593 -0.006058 0.089569 
0.505593 -0.003155 0.089686 
0.201529 0.695103 0.090183 
0.701529 0.698006 0.090301 
0.101529 0.694522 0.090160 
0.099787 0.994522 0.090403 
1.599787 1.003231 0.090755 
1.601529 0.703231 0.090512 
0.917690 0.499254 0.090189 
1.001529 0.699748 0.090371 
0.645547 0.497674 0.090125 
0.659542 0.547757 0.090169 
0.902400 0.549167 0.090226 
1.051529 0.700038 0.090383 
1.600835 0.821386 0.122428 
1.600850 0.821437 0.058788 
1.600481 0.885077 0.058840 
1.600466 0.885025 0.122479 
0.300481 0.877529 0.058534 
0.300850 0.813889 0.058483 
0.300835 0.813838 0.122122 
0.300466 0.877477 0.122174 
1.507790 0.852656 0.135612 
1.414933 0.852117 0.135590 
1.322076 0.851577 0.135568 
1.229219 0.851038 0.135547 
1.136362 0.850499 0.135525 
1.043504 0.849960 0.135503 
0.950647 0.849421 0.135481 
0.857790 0.848882 0.135459 
0.764933 0.848343 0.135437 
0.672076 0.847803 0.135416 
0.579219 0.847264 0.135394 
0.486362 0.846725 0.135372 
0.393504 0.846186 0.135350 
1.507539 0.897692 0.090649 
1.414682 0.897153 0.090627 
1.321825 0.896614 0.090605 
1.228968 0.896075 0.090583 
1.136111 0.895536 0.090561 
1.043254 0.894996 0.090539 
0.950397 0.894457 0.090518 
0.857539 0.893918 0.090496 
0.764682 0.893379 0.090474 
0.671825 0.892840 0.090452 
0.578968 0.892301 0.090430 
0.486111 0.891762 0.090408 
0.393254 0.891223 0.090387 
1.507811 0.852729 0.045612 
1.414954 0.852190 0.045590 
1.322097 0.851650 0.045568 
1.229240 0.851111 0.045547 
1.136383 0.850572 0.045525 
1.043526 0.850033 0.045503 
0.950668 0.849494 0.045481 
0.857811 0.848955 0.045459 
0.764954 0.848416 0.045437 
0.672097 0.847876 0.045416 
0.579240 0.847337 0.045394 
0.486383 0.846798 0.045372 
0.393526 0.846259 0.045350 
1.508062 0.807692 0.090576 
1.415205 0.807153 0.090554 
1.322348 0.806614 0.090532 
1.229491 0.806075 0.090510 
1.136633 0.805536 0.090488 
1.043776 0.804996 0.090466 
0.950919 0.804457 0.090445 
0.858062 0.803918 0.090423 
0.765205 0.803379 0.090401 
0.672348 0.802840 0.090379 
0.579491 0.802301 0.090357 
0.486633 0.801762 0.090335 
0.393776 0.801223 0.090314 
1.600057 0.955015 0.131032 
1.601239 0.751382 0.130867 
1.601258 0.751447 0.050235 
1.600079 0.954524 0.051189 
1.601055 0.787782 0.020611 
1.601022 0.787668 0.160550 
1.600301 0.917645 0.019824 
1.600261 0.918681 0.160657 
1.600851 0.822298 0.033125 
1.600824 0.822205 0.148093 
1.600496 0.883530 0.032172 
1.600464 0.884164 0.148143 
1.600288 0.915696 0.121865 
1.601014 0.790610 0.121847 
1.601029 0.790660 0.059320 
1.600309 0.914759 0.056799 
1.601185 0.762425 0.090560 
1.600136 0.943080 0.089963 
0.345175 0.828669 0.118075 
1.556328 0.835701 0.118359 
0.718640 0.825591 0.112908 
0.811497 0.826130 0.112930 
0.904355 0.826670 0.112952 
0.625783 0.825052 0.112886 
1.182926 0.828287 0.113017 
0.440069 0.823974 0.112843 
0.997212 0.827209 0.112974 
0.532926 0.824513 0.112865 
1.090069 0.827748 0.112996 
1.275783 0.828826 0.113039 
1.368640 0.829365 0.113061 
1.461497 0.829904 0.113083 
0.334190 0.812992 0.102434 
1.567502 0.820153 0.102724 
0.344975 0.863169 0.118103 
1.556127 0.870201 0.118387 
0.811236 0.871130 0.112967 
0.718379 0.870591 0.112945 
0.904093 0.871670 0.112988 
0.625522 0.870052 0.112923 
0.996950 0.872209 0.113010 
0.532665 0.869513 0.112901 
0.439808 0.868974 0.112879 
1.182665 0.873287 0.113054 
1.089808 0.872748 0.113032 
1.275522 0.873826 0.113076 
1.368379 0.874365 0.113098 
1.461236 0.874904 0.113119 
0.333808 0.878742 0.102488 
1.567120 0.885903 0.102778 
0.300658 0.845645 0.090478 
0.300759 0.827878 0.097696 
0.300705 0.838306 0.072476 
0.300613 0.852632 0.108427 
0.300555 0.863689 0.083614 
1.556341 0.835746 0.062859 
0.345247 0.818205 0.073066 
0.718651 0.825628 0.067908 
0.811508 0.826167 0.067930 
0.904365 0.826706 0.067952 
0.625794 0.825089 0.067886 
1.090079 0.827784 0.067996 
0.532937 0.824549 0.067865 
0.997222 0.827245 0.067974 
1.182937 0.828323 0.068017 
0.440079 0.824010 0.067843 
1.275794 0.828863 0.068039 
1.368651 0.829402 0.068061 
1.461508 0.829941 0.068083 
1.567507 0.820173 0.078474 
0.334080 0.833779 0.057451 
0.344988 0.863214 0.062603 
1.556077 0.880737 0.073396 
0.718390 0.870628 0.067945 
0.811247 0.871167 0.067967 
0.904104 0.871706 0.067988 
0.625532 0.870089 0.067923 
1.182675 0.873323 0.068054 
0.996961 0.872245 0.068010 
1.089818 0.872784 0.068032 
0.532675 0.869549 0.067901 
0.439818 0.869010 0.067879 
1.275532 0.873863 0.068076 
1.368390 0.874402 0.068098 
1.461247 0.874941 0.068119 
0.333814 0.878762 0.078238 
1.567251 0.865189 0.057761 
0.421737 0.591737 0.000150 
0.349670 0.357956 -0.000057 
0.382555 0.789448 0.000301 
0.530467 0.713987 0.000274 
0.541965 0.553346 0.000146 
1.036779 0.848730 0.000500 
0.324234 0.676896 0.000197 
0.441670 0.468851 0.000055 
0.297318 0.490168 0.000039 
0.252161 0.184369 -0.000220 
0.620191 0.833497 0.000392 
0.267051 0.770323 0.000259 
0.432634 0.695696 0.000237 
1.175448 0.848118 0.000532 
0.407367 0.204787 -0.000168 
1.367365 0.848672 0.000576 
0.510756 0.835890 0.000369 
0.497812 0.633069 0.000201 
0.481286 0.338690 -0.000042 
0.594231 0.632662 0.000223 
0.316931 0.583785 0.000119 
0.237458 0.356222 -0.000084 
0.769491 0.830932 0.000424 
0.549779 0.455867 0.000069 
1.100451 0.796698 0.000473 
0.724093 0.525850 0.000166 
0.903539 0.905231 0.000515 
0.937540 0.779152 0.000421 
0.838283 0.526719 0.000193 
0.319515 0.882983 0.000363 
0.265018 0.634325 0.000148 
0.466597 0.525246 0.000106 
0.376604 0.507352 0.000071 
0.399622 0.882711 0.000381 
0.598425 0.537922 0.000147 
1.022260 0.768859 0.000432 
0.628899 0.744895 0.000322 
0.992974 0.649033 0.000328 
0.179585 0.101737 -0.000304 
0.190277 0.792965 0.000260 
1.277479 0.792574 0.000510 
1.467381 0.794906 0.000556 
0.182375 0.277317 -0.000161 
0.349127 0.111114 -0.000257 
0.386569 0.644531 0.000185 
0.940063 0.571225 0.000253 
0.214806 0.445106 -0.000017 
0.478939 0.755094 0.000296 
0.266721 0.704083 0.000205 
0.366206 0.435838 0.000010 
0.199984 0.890946 0.000342 
0.293881 0.287115 -0.000127 
1.101887 0.912408 0.000567 
1.271463 0.893470 0.000591 
0.263583 0.559002 0.000087 
1.459317 0.906613 0.000645 
0.572487 0.906005 0.000440 
0.463053 0.144286 -0.000204 
0.375945 0.717216 0.000241 
0.487984 0.244771 -0.000117 
0.445295 0.063475 -0.000274 
0.293602 0.409474 -0.000028 
0.692018 0.901874 0.000464 
0.621735 0.585320 0.000191 
0.593924 0.483695 0.000102 
0.543894 0.379739 0.000006 
0.556699 0.777723 0.000332 
0.483412 0.575441 0.000151 
0.697517 0.789825 0.000374 
0.424056 0.385445 -0.000017 
0.139093 0.187455 -0.000244 
[...]
POINT_DATA 749
SCALARS u float 1
LOOKUP_TABLE default
0.058337
0.045521
0.035994
0.017653
0.039931
0.038499
0.024101
0.026163
0.019875
0.011385
0.025040
0.023110
0.018083
0.011361
0.058893
0.045768
0.036893
0.018287
0.040848
0.039543
0.023113
0.025109
0.019863
0.011261
0.025490
0.023597
0.018139
0.011045
0.023574
0.024102
0.023596
0.024223
0.031329
0.030841
0.030881
0.031398
0.054687
0.051296
0.048220
0.055129
0.051999
0.048963
0.046038
0.043249
0.040621
0.038190
0.037958
0.038722
0.034115
0.029742
0.025385
0.021055
0.016771
0.012580
0.008623
0.005432
0.004871
0.007551
0.011374
0.015517
0.019781
0.024366
0.013503
0.028332
0.031693
0.035104
0.038551
0.042025
0.021897
0.015390
0.014637
0.020136
0.020305
0.012253
0.014136
0.016676
0.019621
0.022813
0.055184
0.051723
0.048563
0.055718
0.052623
0.049626
0.046743
0.043998
0.041419
0.039038
0.038866
0.039713
0.035160
0.030786
0.026428
0.022095
0.017804
0.013596
0.009580
0.006147
0.004781
0.006855
0.010498
0.014576
0.018810
0.023310
0.013868
0.028730
0.032049
0.035425
0.038843
0.042293
0.022150
0.015266
0.014624
0.020441
0.020858
0.011629
0.013307
0.015733
0.018617
0.021776
0.058613
0.045641
0.036443
0.017965
0.040388
0.039021
0.023606
0.025636
0.019861
0.011310
0.025260
0.023349
0.018103
0.011191
0.023908
0.024283
0.023837
0.023466
0.030753
0.031126
0.031465
0.031105
0.019885
0.016261
0.012759
0.009513
0.006895
0.005825
0.007048
0.009734
0.013007
0.016521
0.020151
0.023844
0.027574
0.019859
0.016166
0.012555
0.009125
0.006185
0.004752
0.006022
0.008904
0.012314
0.015917
0.019606
0.023341
0.027103
0.020411
0.016783
0.013269
0.009990
0.007272
0.005942
0.006862
0.009392
0.012596
0.016077
0.019688
0.023369
0.027092
0.020604
0.017077
0.013715
0.010672
0.008309
0.007317
0.008208
0.010514
0.013530
0.016880
0.020400
0.024015
0.027688
0.023273
0.024665
0.025140
0.023724
0.024857
0.024031
0.023945
0.023132
0.024427
0.023749
0.024000
0.023321
0.023362
0.024226
0.024595
0.023739
0.024754
0.023505
0.029549
0.022045
0.014930
0.011609
0.008715
0.018450
0.008695
0.025757
0.006819
0.022073
0.006810
0.011584
0.014903
0.018422
0.030027
0.022720
0.029342
0.021785
0.010919
0.014398
0.007778
0.018020
0.005579
0.021713
0.025447
0.007771
0.005575
0.010911
0.014389
0.018011
0.029635
0.022234
0.031085
0.031235
0.031032
0.031144
0.030953
0.022371
0.029387
0.014724
0.011429
0.008591
0.018229
0.006943
0.021844
0.006807
0.008911
0.025522
0.011831
0.015161
0.018684
0.022862
0.029636
0.029039
0.021986
0.014174
0.010715
0.007621
0.017786
0.007995
0.005539
0.005712
0.021473
0.025204
0.011160
0.014647
0.018272
0.029502
0.022615
0.029507
0.037663
0.027788
0.023193
0.026415
0.006034
0.031515
0.031802
0.036061
0.045530
0.018015
0.032561
0.027126
0.008587
0.040604
0.015259
0.022262
0.025964
0.034406
0.022721
0.033407
0.041272
0.012513
0.028934
0.008289
0.022177
0.006886
0.009145
0.019852
0.029636
0.034431
0.029545
0.032959
0.026388
0.025129
0.008728
0.019066
0.013400
0.050075
0.035429
0.012964
0.019736
0.045081
0.045135
0.029725
0.016830
0.039925
0.024458
0.033339
0.035067
0.034475
0.041336
0.005460
0.011183
0.035823
0.018410
0.019314
0.041225
0.028941
0.037247
0.044418
0.038097
0.014599
0.023100
0.026863
0.031443
0.021175
0.027762
0.015785
0.034641
0.048849
0.038056
0.027667
0.037961
0.020196
0.047970
0.004591
0.034558
0.010829
0.016660
0.010178
0.025159
0.028787
0.021617
0.009969
0.030816
0.025334
0.014008
0.031698
0.022936
0.024553
0.013883
0.023937
0.010170
0.031572
0.023178
0.042125
0.027113
0.025018
0.033985
0.012690
0.031975
0.019768
0.023166
0.008250
0.029810
0.032202
0.030567
0.006803
0.028260
0.043115
0.021642
0.031457
0.026662
0.039525
0.010182
0.006652
0.038211
0.052174
0.036400
0.033919
0.036323
0.020076
0.030313
0.038211
0.028790
0.024018
0.026957
0.005857
0.032369
0.032507
0.036815
0.046159
0.018869
0.033485
0.028013
0.007740
0.041008
0.014271
0.023192
0.026699
0.034941
0.023389
0.034092
0.041944
0.013297
0.029508
0.007717
0.022550
0.007614
0.009393
0.020027
0.030631
0.035188
0.030261
0.033637
0.027376
0.025675
0.008592
0.019828
0.013276
0.050645
0.036460
0.012037
0.018685
0.045731
0.045559
0.030558
0.016810
0.040649
0.025331
0.034217
0.035657
0.035549
0.041936
0.004838
0.010225
0.036576
0.017378
0.020260
0.041581
0.029815
0.037630
0.044746
0.038750
0.015507
0.023700
0.027374
0.031894
0.021953
0.028447
0.016592
0.035245
0.049497
0.038584
0.028445
0.038824
0.020873
0.048520
0.004933
0.035487
0.010086
0.015669
0.011066
0.025815
0.029410
0.020595
0.010566
0.031740
0.026164
0.013033
0.032429
0.023927
0.025146
0.014524
0.024685
0.010256
0.032170
0.022120
0.042677
0.027675
0.025974
0.034397
0.012503
0.032761
0.019875
0.023571
0.007352
0.030787
0.033199
0.031267
0.007138
0.029282
0.043815
0.022394
0.032486
0.027572
0.040164
0.009732
0.006071
0.038986
0.052757
0.037391
0.034645
0.037359
0.020972
0.033514
0.040636
0.029824
0.036984
0.043401
0.027385
0.027195
0.043472
0.022846
0.020901
0.020837
0.014160
0.017412
0.017391
0.015276
0.013010
0.012949
0.015562
0.015759
0.012135
0.012191
0.013671
0.020646
0.019457
0.021501
0.019587
0.021707
0.021545
0.012605
0.017644
0.020981
0.014878
0.011467
0.023321
0.023790
0.011601
0.032336
0.028070
0.023736
0.019423
0.015171
0.011052
0.007293
0.004826
0.005698
0.008984
0.012963
0.017033
0.020568
0.036047
0.036830
0.021925
0.053101
0.049993
0.047360
0.056227
0.054058
0.047804
0.039619
0.044907
0.050822
0.042240
0.037945
0.056618
0.056593
0.037541
0.038161
0.039503
0.037697
0.038965
0.038798
0.039182
0.039509
0.039868
0.039217
0.010015
0.031471
0.031176
0.028726
0.033682
0.030489
0.030303
0.029986
0.026614
0.029008
0.027738
0.029364
0.029026
0.034395
0.034143
0.032153
0.031919
0.032909
0.032045
0.033988
0.032583
0.024310
0.028220
0.037947
0.036714
0.025226
0.026348
0.012733
0.021526
0.021218
0.024094
0.023773
0.034165
0.034747
0.034397
0.026711
0.026380
0.039908
0.039099
0.014800
0.040612
0.040064
0.038321
0.036103
0.038075
0.036924
0.037464
0.037110
0.033812
0.033799
0.031700
0.022784
0.022508
0.024064
0.026198
0.030008
0.029794
0.027981
0.027098
0.035264
0.037739
0.034978
0.037443
0.032843
0.032570
0.036449
0.037989
0.024933
0.027431
0.009788
0.031949
0.031759
0.011003
0.035873
0.034017
0.025126
0.036597
0.036556
0.025346
0.019027
0.018737
0.042247
0.044568
0.046193
0.044693
0.030231
0.040353
0.039837
0.033433
0.033761
0.011303
0.033847
0.035734
0.036217
0.023889
0.025317
0.035168
0.022414
0.019895
0.017466
0.017081
0.038398
0.053684
0.051683
0.032968
0.031513
0.030120
0.015171
0.033513
0.032454
0.031102
0.013078
0.032715
0.033090
0.033088
0.033272
0.032902
0.032778
0.032714
0.031320
0.032904
0.034284
0.035666
0.033152
0.032104
0.032138
0.034653
0.036037
0.037422
0.035868
0.036260
0.036222
0.034479
0.034885
0.034838
0.034469
0.033812
0.033693
0.033332
0.033456
0.033278
0.032824
0.033250
0.032630
0.032279
0.029927
0.023427
