# vtk DataFile Version 2.0
Unstructured Grid Example
ASCII
DATASET UNSTRUCTURED_GRID
POINTS 749 float
-0.009131 0.009735 0.000702 
0.490869 0.005013 0.000510 
0.197479 0.707846 -0.000298 
0.697479 0.703125 -0.000489 
0.097479 0.708791 -0.000260 
0.100312 1.008791 -0.000655 
1.600312 0.994626 -0.001229 
1.597479 0.694626 -0.000833 
0.910591 0.501094 -0.000308 
0.997479 0.700292 -0.000604 
0.638448 0.503664 -0.000203 
0.653206 0.553529 -0.000275 
0.896063 0.551236 -0.000368 
1.047479 0.699820 -0.000623 
-0.009062 0.009972 0.180702 
0.490938 0.005251 0.180510 
0.197548 0.708084 0.179702 
0.697548 0.703362 0.179511 
0.097548 0.709028 0.179740 
0.100381 1.009028 0.179345 
1.600381 0.994863 0.178771 
1.597548 0.694863 0.179167 
0.910659 0.501332 0.179692 
0.997548 0.700529 0.179396 
0.638516 0.503902 0.179797 
0.653274 0.553767 0.179725 
0.896132 0.551473 0.179632 
1.047548 0.700057 0.179377 
1.598947 0.844804 0.133969 
1.598913 0.844685 0.043969 
1.599355 0.889744 0.088910 
1.598505 0.799744 0.089028 
0.298947 0.857080 0.134466 
0.298913 0.856961 0.044466 
0.299355 0.902021 0.089407 
0.298505 0.812021 0.089525 
0.115869 0.008555 0.000654 
0.240869 0.007374 0.000606 
0.365869 0.006194 0.000558 
0.016695 0.096999 0.000577 
0.042521 0.184263 0.000452 
0.068348 0.271527 0.000327 
0.094174 0.358791 0.000202 
0.120000 0.446055 0.000077 
0.145827 0.533319 -0.000048 
0.171653 0.620583 -0.000173 
0.147479 0.708319 -0.000279 
0.098896 0.858791 -0.000457 
0.207455 1.007779 -0.000696 
0.314598 1.006767 -0.000737 
0.421741 1.005755 -0.000778 
0.528884 1.004744 -0.000819 
0.636026 1.003732 -0.000860 
0.743169 1.002720 -0.000901 
0.850312 1.001708 -0.000942 
0.957455 1.000696 -0.000983 
1.064598 0.999685 -0.001024 
1.171741 0.998673 -0.001065 
1.278884 0.997661 -0.001106 
1.386026 0.996649 -0.001147 
1.493169 0.995638 -0.001188 
1.598896 0.844626 -0.001031 
0.847479 0.701708 -0.000546 
0.613851 0.420556 -0.000084 
0.589255 0.337447 0.000035 
0.564658 0.254339 0.000154 
0.540062 0.171230 0.000272 
0.515465 0.088122 0.000391 
0.774519 0.502379 -0.000255 
0.979035 0.600457 -0.000465 
0.946771 0.625764 -0.000486 
0.774634 0.552383 -0.000321 
0.675342 0.628327 -0.000382 
1.139146 0.698954 -0.000658 
1.230813 0.698088 -0.000693 
1.322479 0.697223 -0.000728 
1.414146 0.696357 -0.000763 
1.505813 0.695491 -0.000798 
0.115938 0.008792 0.180654 
0.240938 0.007612 0.180606 
0.365938 0.006431 0.180558 
0.016764 0.097236 0.180577 
0.042590 0.184500 0.180452 
0.068417 0.271764 0.180327 
0.094243 0.359028 0.180202 
0.120069 0.446292 0.180077 
0.145895 0.533556 0.179952 
0.171722 0.620820 0.179827 
0.147548 0.708556 0.179721 
0.098965 0.859028 0.179543 
0.207524 1.008016 0.179304 
0.314667 1.007005 0.179263 
0.421810 1.005993 0.179222 
0.528952 1.004981 0.179181 
0.636095 1.003969 0.179140 
0.743238 1.002957 0.179099 
0.850381 1.001946 0.179058 
0.957524 1.000934 0.179017 
1.064667 0.999922 0.178976 
1.171810 0.998910 0.178935 
1.278952 0.997898 0.178894 
1.386095 0.996887 0.178853 
1.493238 0.995875 0.178812 
1.598965 0.844863 0.178969 
0.847548 0.701946 0.179454 
0.613920 0.420793 0.179916 
0.589324 0.337685 0.180035 
0.564727 0.254576 0.180154 
0.540131 0.171468 0.180272 
0.515534 0.088359 0.180391 
0.774588 0.502617 0.179745 
0.979104 0.600694 0.179535 
0.946840 0.626001 0.179514 
0.774703 0.552620 0.179679 
0.675411 0.628564 0.179618 
1.139215 0.699191 0.179342 
1.230881 0.698326 0.179307 
1.322548 0.697460 0.179272 
1.414215 0.696594 0.179237 
1.505881 0.695729 0.179202 
-0.009097 0.009854 0.090702 
0.490903 0.005132 0.090510 
0.197514 0.707965 0.089702 
0.697514 0.703243 0.089511 
0.097514 0.708909 0.089740 
0.100347 1.008909 0.089345 
1.600347 0.994744 0.088771 
1.597514 0.694744 0.089167 
0.910625 0.501213 0.089692 
0.997514 0.700410 0.089396 
0.638482 0.503783 0.089797 
0.653240 0.553648 0.089725 
0.896097 0.551355 0.089632 
1.047514 0.699938 0.089377 
1.598642 0.812967 0.120831 
1.598617 0.812883 0.057191 
1.599218 0.876522 0.057107 
1.599243 0.876606 0.120747 
0.299218 0.888799 0.057604 
0.298617 0.825159 0.057688 
0.298642 0.825243 0.121328 
0.299243 0.888883 0.121244 
1.506090 0.845681 0.134005 
1.413233 0.846558 0.134040 
1.320376 0.847434 0.134076 
1.227519 0.848311 0.134111 
1.134662 0.849188 0.134147 
1.041804 0.850065 0.134182 
0.948947 0.850942 0.134218 
0.856090 0.851819 0.134253 
0.763233 0.852696 0.134289 
0.670376 0.853573 0.134324 
0.577519 0.854449 0.134360 
0.484662 0.855326 0.134395 
0.391804 0.856203 0.134431 
1.506498 0.890621 0.088945 
1.413641 0.891498 0.088981 
1.320784 0.892375 0.089016 
1.227926 0.893252 0.089052 
1.135069 0.894129 0.089087 
1.042212 0.895006 0.089123 
0.949355 0.895883 0.089158 
0.856498 0.896759 0.089194 
0.763641 0.897636 0.089229 
0.670784 0.898513 0.089265 
0.577926 0.899390 0.089300 
0.485069 0.900267 0.089336 
0.392212 0.901144 0.089371 
1.506056 0.845562 0.044005 
1.413199 0.846439 0.044040 
1.320341 0.847316 0.044076 
1.227484 0.848193 0.044111 
1.134627 0.849069 0.044147 
1.041770 0.849946 0.044182 
0.948913 0.850823 0.044218 
0.856056 0.851700 0.044253 
0.763199 0.852577 0.044289 
0.670341 0.853454 0.044324 
0.577484 0.854331 0.044360 
0.484627 0.855208 0.044395 
0.391770 0.856085 0.044431 
1.505648 0.800621 0.089064 
1.412791 0.801498 0.089099 
1.319934 0.802375 0.089135 
1.227077 0.803252 0.089170 
1.134219 0.804129 0.089206 
1.041362 0.805006 0.089241 
0.948505 0.805883 0.089277 
0.855648 0.806759 0.089312 
0.762791 0.807636 0.089348 
0.669934 0.808513 0.089383 
0.577077 0.809390 0.089419 
0.484219 0.810267 0.089454 
0.391362 0.811144 0.089490 
1.599907 0.946614 0.129151 
1.597984 0.742981 0.129419 
1.597953 0.742875 0.048787 
1.599871 0.945953 0.049308 
1.598285 0.779146 0.019086 
1.598338 0.779330 0.159025 
1.599511 0.909007 0.018022 
1.599575 0.910343 0.158852 
1.598616 0.813689 0.031526 
1.598660 0.813841 0.146494 
1.599193 0.874918 0.030443 
1.599245 0.875800 0.146412 
1.599532 0.907275 0.120068 
1.598351 0.782189 0.120315 
1.598327 0.782107 0.057788 
1.599498 0.906200 0.055003 
1.598073 0.753938 0.089089 
1.599778 0.934591 0.088107 
0.343202 0.839388 0.117222 
1.554354 0.827951 0.116759 
0.716583 0.830604 0.111836 
0.809441 0.829728 0.111800 
0.902298 0.828851 0.111765 
0.623726 0.831481 0.111871 
1.180869 0.826220 0.111658 
0.438012 0.833235 0.111942 
0.995155 0.827974 0.111729 
0.530869 0.832358 0.111907 
1.088012 0.827097 0.111694 
1.273726 0.825343 0.111623 
1.366583 0.824466 0.111587 
1.459441 0.823589 0.111552 
0.331968 0.823847 0.101622 
1.565280 0.812200 0.101150 
0.343527 0.873888 0.117176 
1.554680 0.862451 0.116713 
0.809865 0.874728 0.111741 
0.717008 0.875604 0.111777 
0.902723 0.873851 0.111706 
0.624151 0.876481 0.111812 
0.995580 0.872974 0.111670 
0.531294 0.877358 0.111848 
0.438437 0.878235 0.111883 
1.181294 0.871220 0.111599 
1.088437 0.872097 0.111635 
1.274151 0.870343 0.111564 
1.367008 0.869466 0.111528 
1.459865 0.868589 0.111493 
0.332589 0.889597 0.101535 
1.565901 0.877950 0.101063 
0.298930 0.856983 0.089616 
0.298765 0.839231 0.096872 
0.298853 0.849605 0.071629 
0.299003 0.864008 0.107550 
0.299098 0.875012 0.082714 
1.554333 0.827877 0.061259 
0.343085 0.828829 0.072236 
0.716566 0.830545 0.066836 
0.809423 0.829668 0.066800 
0.902280 0.828791 0.066765 
0.623709 0.831422 0.066871 
1.087995 0.827038 0.066694 
0.530852 0.832299 0.066907 
0.995138 0.827914 0.066729 
1.180852 0.826161 0.066658 
0.437995 0.833176 0.066942 
1.273709 0.825284 0.066623 
1.366566 0.824407 0.066587 
1.459423 0.823530 0.066552 
1.565271 0.812168 0.076900 
0.332147 0.844538 0.056594 
0.343506 0.873815 0.061676 
1.554762 0.872891 0.071699 
0.716991 0.875545 0.066777 
0.809848 0.874668 0.066741 
0.902705 0.873791 0.066706 
0.624134 0.876422 0.066812 
1.181277 0.871161 0.066599 
0.995563 0.872914 0.066670 
1.088420 0.872038 0.066635 
0.531277 0.877299 0.066848 
0.438420 0.878176 0.066883 
1.274134 0.870284 0.066564 
1.366991 0.869407 0.066528 
1.459848 0.868530 0.066493 
0.332580 0.889565 0.077285 
1.565688 0.857141 0.056091 
0.416069 0.601059 -0.000244 
0.340444 0.368398 0.000092 
0.379906 0.799350 -0.000490 
0.526654 0.721641 -0.000446 
0.535702 0.560838 -0.000238 
1.034976 0.848651 -0.000814 
0.319874 0.687698 -0.000320 
0.434127 0.477880 -0.000089 
0.290112 0.501396 -0.000063 
0.240297 0.196313 0.000358 
0.618193 0.839771 -0.000637 
0.264121 0.781988 -0.000422 
0.428551 0.704842 -0.000385 
1.173623 0.845924 -0.000865 
0.395800 0.214362 0.000273 
1.365531 0.843552 -0.000937 
0.508803 0.843834 -0.000600 
0.492769 0.641227 -0.000327 
0.471755 0.347126 0.000068 
0.589172 0.639350 -0.000362 
0.311151 0.594706 -0.000194 
0.228215 0.368375 0.000136 
0.767440 0.834930 -0.000690 
0.542028 0.463249 -0.000112 
1.097849 0.795652 -0.000769 
0.717394 0.530567 -0.000270 
0.902609 0.907179 -0.000838 
0.934685 0.780592 -0.000685 
0.831587 0.529695 -0.000314 
0.318297 0.893838 -0.000590 
0.260013 0.646033 -0.000241 
0.459912 0.533890 -0.000173 
0.369653 0.517370 -0.000115 
0.398394 0.892344 -0.000620 
0.591921 0.544555 -0.000239 
1.019240 0.769009 -0.000703 
0.625548 0.751044 -0.000524 
0.988130 0.649640 -0.000533 
0.166467 0.114795 0.000494 
0.187699 0.805799 -0.000423 
1.274799 0.788829 -0.000830 
1.464719 0.788265 -0.000904 
0.171934 0.290317 0.000261 
0.336137 0.121586 0.000418 
0.381710 0.654385 -0.000300 
0.934037 0.572645 -0.000411 
0.206921 0.457596 0.000027 
0.475758 0.763529 -0.000481 
0.262780 0.715759 -0.000334 
0.358166 0.446021 -0.000017 
0.198899 0.903623 -0.000556 
0.283579 0.298414 0.000206 
1.101049 0.911330 -0.000922 
1.270322 0.889808 -0.000961 
0.257431 0.570739 -0.000141 
1.458359 0.900085 -0.001048 
0.571598 0.913000 -0.000715 
0.450559 0.153018 0.000332 
0.372195 0.727226 -0.000392 
0.477019 0.253114 0.000190 
0.431570 0.072485 0.000445 
0.285167 0.420766 0.000045 
0.691055 0.907047 -0.000755 
0.615952 0.591593 -0.000310 
0.586594 0.490401 -0.000166 
0.534983 0.387217 -0.000010 
0.553856 0.784970 -0.000540 
0.477490 0.583824 -0.000245 
[...]
POINT_DATA 749
SCALARS u float 1
LOOKUP_TABLE default
0.058337
0.045521
0.035994
0.017653
0.039931
0.038499
0.024101
0.026163
0.019875
0.011385
0.025040
0.023110
0.018083
0.011361
0.058893
0.045768
0.036893
0.018287
0.040848
0.039543
0.023113
0.025109
0.019863
0.011261
0.025490
0.023597
0.018139
0.011045
0.023574
0.024102
0.023596
0.024223
0.031329
0.030841
0.030881
0.031398
0.054687
0.051296
0.048220
0.055129
0.051999
0.048963
0.046038
0.043249
0.040621
0.038190
0.037958
0.038722
0.034115
0.029742
0.025385
0.021055
0.016771
0.012580
0.008623
0.005432
0.004871
0.007551
0.011374
0.015517
0.019781
0.024366
0.013503
0.028332
0.031693
0.035104
0.038551
0.042025
0.021897
0.015390
0.014637
0.020136
0.020305
0.012253
0.014136
0.016676
0.019621
0.022813
0.055184
0.051723
0.048563
0.055718
0.052623
0.049626
0.046743
0.043998
0.041419
0.039038
0.038866
0.039713
0.035160
0.030786
0.026428
0.022095
0.017804
0.013596
0.009580
0.006147
0.004781
0.006855
0.010498
0.014576
0.018810
0.023310
0.013868
0.028730
0.032049
0.035425
0.038843
0.042293
0.022150
0.015266
0.014624
0.020441
0.020858
0.011629
0.013307
0.015733
0.018617
0.021776
0.058613
0.045641
0.036443
0.017965
0.040388
0.039021
0.023606
0.025636
0.019861
0.011310
0.025260
0.023349
0.018103
0.011191
0.023908
0.024283
0.023837
0.023466
0.030753
0.031126
0.031465
0.031105
0.019885
0.016261
0.012759
0.009513
0.006895
0.005825
0.007048
0.009734
0.013007
0.016521
0.020151
0.023844
0.027574
0.019859
0.016166
0.012555
0.009125
0.006185
0.004752
0.006022
0.008904
0.012314
0.015917
0.019606
0.023341
0.027103
0.020411
0.016783
0.013269
0.009990
0.007272
0.005942
0.006862
0.009392
0.012596
0.016077
0.019688
0.023369
0.027092
0.020604
0.017077
0.013715
0.010672
0.008309
0.007317
0.008208
0.010514
0.013530
0.016880
0.020400
0.024015
0.027688
0.023273
0.024665
0.025140
0.023724
0.024857
0.024031
0.023945
0.023132
0.024427
0.023749
0.024000
0.023321
0.023362
0.024226
0.024595
0.023739
0.024754
0.023505
0.029549
0.022045
0.014930
0.011609
0.008715
0.018450
0.008695
0.025757
0.006819
0.022073
0.006810
0.011584
0.014903
0.018422
0.030027
0.022720
0.029342
0.021785
0.010919
0.014398
0.007778
0.018020
0.005579
0.021713
0.025447
0.007771
0.005575
0.010911
0.014389
0.018011
0.029635
0.022234
0.031085
0.031235
0.031032
0.031144
0.030953
0.022371
0.029387
0.014724
0.011429
0.008591
0.018229
0.006943
0.021844
0.006807
0.008911
0.025522
0.011831
0.015161
0.018684
0.022862
0.029636
0.029039
0.021986
0.014174
0.010715
0.007621
0.017786
0.007995
0.005539
0.005712
0.021473
0.025204
0.011160
0.014647
0.018272
0.029502
0.022615
0.029507
0.037663
0.027788
0.023193
0.026415
0.006034
0.031515
0.031802
0.036061
0.045530
0.018015
0.032561
0.027126
0.008587
0.040604
0.015259
0.022262
0.025964
0.034406
0.022721
0.033407
0.041272
0.012513
0.028934
0.008289
0.022177
0.006886
0.009145
0.019852
0.029636
0.034431
0.029545
0.032959
0.026388
0.025129
0.008728
0.019066
0.013400
0.050075
0.035429
0.012964
0.019736
0.045081
0.045135
0.029725
0.016830
0.039925
0.024458
0.033339
0.035067
0.034475
0.041336
0.005460
0.011183
0.035823
0.018410
0.019314
0.041225
0.028941
0.037247
0.044418
0.038097
0.014599
0.023100
0.026863
0.031443
0.021175
0.027762
0.015785
0.034641
0.048849
0.038056
0.027667
0.037961
0.020196
0.047970
0.004591
0.034558
0.010829
0.016660
0.010178
0.025159
0.028787
0.021617
0.009969
0.030816
0.025334
0.014008
0.031698
0.022936
0.024553
0.013883
0.023937
0.010170
0.031572
0.023178
0.042125
0.027113
0.025018
0.033985
0.012690
0.031975
0.019768
0.023166
0.008250
0.029810
0.032202
0.030567
0.006803
0.028260
0.043115
0.021642
0.031457
0.026662
0.039525
0.010182
0.006652
0.038211
0.052174
0.036400
0.033919
0.036323
0.020076
0.030313
0.038211
0.028790
0.024018
0.026957
0.005857
0.032369
0.032507
0.036815
0.046159
0.018869
0.033485
0.028013
0.007740
0.041008
0.014271
0.023192
0.026699
0.034941
0.023389
0.034092
0.041944
0.013297
0.029508
0.007717
0.022550
0.007614
0.009393
0.020027
0.030631
0.035188
0.030261
0.033637
0.027376
0.025675
0.008592
0.019828
0.013276
0.050645
0.036460
0.012037
0.018685
0.045731
0.045559
0.030558
0.016810
0.040649
0.025331
0.034217
0.035657
0.035549
0.041936
0.004838
0.010225
0.036576
0.017378
0.020260
0.041581
0.029815
0.037630
0.044746
0.038750
0.015507
0.023700
0.027374
0.031894
0.021953
0.028447
0.016592
0.035245
0.049497
0.038584
0.028445
0.038824
0.020873
0.048520
0.004933
0.035487
0.010086
0.015669
0.011066
0.025815
0.029410
0.020595
0.010566
0.031740
0.026164
0.013033
0.032429
0.023927
0.025146
0.014524
0.024685
0.010256
0.032170
0.022120
0.042677
0.027675
0.025974
0.034397
0.012503
0.032761
0.019875
0.023571
0.007352
0.030787
0.033199
0.031267
0.007138
0.029282
0.043815
0.022394
0.032486
0.027572
0.040164
0.009732
0.006071
0.038986
0.052757
0.037391
0.034645
0.037359
0.020972
0.033514
0.040636
0.029824
0.036984
0.043401
0.027385
0.027195
0.043472
0.022846
0.020901
0.020837
0.014160
0.017412
0.017391
0.015276
0.013010
0.012949
0.015562
0.015759
0.012135
0.012191
0.013671
0.020646
0.019457
0.021501
0.019587
0.021707
0.021545
0.012605
0.017644
0.020981
0.014878
0.011467
0.023321
0.023790
0.011601
0.032336
0.028070
0.023736
0.019423
0.015171
0.011052
0.007293
0.004826
0.005698
0.008984
0.012963
0.017033
0.020568
0.036047
0.036830
0.021925
0.053101
0.049993
0.047360
0.056227
0.054058
0.047804
0.039619
0.044907
0.050822
0.042240
0.037945
0.056618
0.056593
0.037541
0.038161
0.039503
0.037697
0.038965
0.038798
0.039182
0.039509
0.039868
0.039217
0.010015
0.031471
0.031176
0.028726
0.033682
0.030489
0.030303
0.029986
0.026614
0.029008
0.027738
0.029364
0.029026
0.034395
0.034143
0.032153
0.031919
0.032909
0.032045
0.033988
0.032583
0.024310
0.028220
0.037947
0.036714
0.025226
0.026348
0.012733
0.021526
0.021218
0.024094
0.023773
0.034165
0.034747
0.034397
0.026711
0.026380
0.039908
0.039099
0.014800
0.040612
0.040064
0.038321
0.036103
0.038075
0.036924
0.037464
0.037110
0.033812
0.033799
0.031700
0.022784
0.022508
0.024064
0.026198
0.030008
0.029794
0.027981
0.027098
0.035264
0.037739
0.034978
0.037443
0.032843
0.032570
0.036449
0.037989
0.024933
0.027431
0.009788
0.031949
0.031759
0.011003
0.035873
0.034017
0.025126
0.036597
0.036556
0.025346
0.019027
0.018737
0.042247
0.044568
0.046193
0.044693
0.030231
0.040353
0.039837
0.033433
0.033761
0.011303
0.033847
0.035734
0.036217
0.023889
0.025317
0.035168
0.022414
0.019895
0.017466
0.017081
0.038398
0.053684
0.051683
0.032968
0.031513
0.030120
0.015171
0.033513
0.032454
0.031102
0.013078
0.032715
0.033090
0.033088
0.033272
0.032902
0.032778
0.032714
0.031320
0.032904
0.034284
0.035666
0.033152
0.032104
0.032138
0.034653
0.036037
0.037422
0.035868
0.036260
0.036222
0.034479
0.034885
0.034838
0.034469
0.033812
0.033693
0.033332
0.033456
0.033278
0.032824
0.033250
0.032630
0.032279
0.029927
0.023427
