# vtk DataFile Version 2.0
Unstructured Grid Example
ASCII
DATASET UNSTRUCTURED_GRID
POINTS 749 float
-0.019365 0.020646 0.001488 
0.480635 0.010632 0.001083 
0.194654 0.716641 -0.000632 
0.694654 0.706627 -0.001037 
0.094654 0.718644 -0.000551 
0.100662 1.018644 -0.001390 
1.600662 0.988602 -0.002606 
1.594654 0.688602 -0.001767 
0.905648 0.502321 -0.000652 
0.994654 0.700619 -0.001280 
0.633505 0.507771 -0.000432 
0.648793 0.557485 -0.000583 
0.891650 0.552621 -0.000780 
1.044654 0.699617 -0.001321 
-0.019219 0.021150 0.181488 
0.480781 0.011136 0.181083 
0.194800 0.717144 0.179368 
0.694800 0.707130 0.178963 
0.094800 0.719147 0.179449 
0.100808 1.019147 0.178610 
1.600808 0.989106 0.177394 
1.594800 0.689106 0.178233 
0.905794 0.502824 0.179348 
0.994800 0.701122 0.178720 
0.633651 0.508275 0.179568 
0.648939 0.557989 0.179417 
0.891796 0.553125 0.179220 
1.044800 0.700121 0.178679 
1.597767 0.838980 0.132814 
1.597694 0.838728 0.042814 
1.598632 0.883854 0.087688 
1.596830 0.793854 0.087939 
0.297767 0.865016 0.133868 
0.297694 0.864764 0.043868 
0.298632 0.909890 0.088742 
0.296830 0.819890 0.088993 
0.105635 0.018143 0.001387 
0.230635 0.015639 0.001285 
0.355635 0.013136 0.001184 
0.007387 0.107646 0.001223 
0.034139 0.194645 0.000958 
0.060892 0.281644 0.000693 
0.087644 0.368644 0.000428 
0.114397 0.455643 0.000163 
0.141149 0.542642 -0.000102 
0.167901 0.629641 -0.000367 
0.144654 0.717642 -0.000591 
0.097658 0.868644 -0.000970 
0.207805 1.016498 -0.001477 
0.314948 1.014352 -0.001563 
0.422091 1.012206 -0.001650 
0.529234 1.010060 -0.001737 
0.636376 1.007914 -0.001824 
0.743519 1.005769 -0.001911 
0.850662 1.003623 -0.001998 
0.957805 1.001477 -0.002085 
1.064948 0.999331 -0.002172 
1.172091 0.997185 -0.002258 
1.279234 0.995040 -0.002345 
1.386376 0.992894 -0.002432 
1.493519 0.990748 -0.002519 
1.597658 0.838602 -0.002186 
0.844654 0.703623 -0.001159 
0.608027 0.424915 -0.000179 
0.582549 0.342058 0.000073 
0.557070 0.259202 0.000326 
0.531592 0.176345 0.000578 
0.506113 0.093489 0.000830 
0.769577 0.505046 -0.000542 
0.975151 0.600969 -0.000987 
0.943152 0.626620 -0.001030 
0.770221 0.555053 -0.000681 
0.671723 0.632056 -0.000810 
1.136321 0.697781 -0.001395 
1.227987 0.695946 -0.001470 
1.319654 0.694110 -0.001544 
1.411321 0.692274 -0.001618 
1.502987 0.690438 -0.001693 
0.105781 0.018646 0.181387 
0.230781 0.016143 0.181285 
0.355781 0.013639 0.181184 
0.007533 0.108149 0.181223 
0.034285 0.195148 0.180958 
0.061038 0.282148 0.180693 
0.087790 0.369147 0.180428 
0.114543 0.456146 0.180163 
0.141295 0.543146 0.179898 
0.168047 0.630145 0.179633 
0.144800 0.718146 0.179409 
0.097804 0.869147 0.179030 
0.207951 1.017001 0.178523 
0.315094 1.014855 0.178437 
0.422237 1.012709 0.178350 
0.529380 1.010564 0.178263 
0.636522 1.008418 0.178176 
0.743665 1.006272 0.178089 
0.850808 1.004126 0.178002 
0.957951 1.001980 0.177915 
1.065094 0.999835 0.177828 
1.172237 0.997689 0.177742 
1.279380 0.995543 0.177655 
1.386522 0.993397 0.177568 
1.493665 0.991251 0.177481 
1.597804 0.839106 0.177814 
0.844800 0.704126 0.178841 
0.608173 0.425418 0.179821 
0.582694 0.342562 0.180073 
0.557216 0.259705 0.180326 
0.531737 0.176849 0.180578 
0.506259 0.093992 0.180830 
0.769723 0.505550 0.179458 
0.975297 0.601473 0.179013 
0.943298 0.627123 0.178970 
0.770367 0.555557 0.179319 
0.671869 0.632560 0.179190 
1.136466 0.698285 0.178605 
1.228133 0.696449 0.178530 
1.319800 0.694613 0.178456 
1.411466 0.692777 0.178382 
1.503133 0.690941 0.178307 
-0.019292 0.020898 0.091488 
0.480708 0.010884 0.091083 
0.194727 0.716892 0.089368 
0.694727 0.706879 0.088963 
0.094727 0.718895 0.089449 
0.100735 1.018895 0.088610 
1.600735 0.988854 0.087394 
1.594727 0.688854 0.088233 
0.905721 0.502573 0.089348 
0.994727 0.700870 0.088720 
0.633578 0.508023 0.089568 
0.648866 0.557737 0.089417 
0.891723 0.552873 0.089220 
1.044727 0.699869 0.088679 
1.597119 0.807123 0.119722 
1.597068 0.806945 0.056083 
1.598342 0.870585 0.055905 
1.598394 0.870763 0.119544 
0.298342 0.896621 0.056959 
0.297068 0.832981 0.057137 
0.297119 0.833159 0.120776 
0.298394 0.896799 0.120598 
1.504910 0.840839 0.132889 
1.412053 0.842699 0.132964 
1.319196 0.844559 0.133039 
1.226339 0.846419 0.133115 
1.133482 0.848278 0.133190 
1.040625 0.850138 0.133265 
0.947767 0.851998 0.133341 
0.854910 0.853857 0.133416 
0.762053 0.855717 0.133491 
0.669196 0.857577 0.133566 
0.576339 0.859436 0.133642 
0.483482 0.861296 0.133717 
0.390625 0.863156 0.133792 
1.505775 0.885714 0.087763 
1.412918 0.887573 0.087838 
1.320061 0.889433 0.087914 
1.227204 0.891293 0.087989 
1.134346 0.893152 0.088064 
1.041489 0.895012 0.088139 
0.948632 0.896872 0.088215 
0.855775 0.898731 0.088290 
0.762918 0.900591 0.088365 
0.670061 0.902451 0.088441 
0.577204 0.904311 0.088516 
0.484346 0.906170 0.088591 
0.391489 0.908030 0.088666 
1.504837 0.840588 0.042889 
1.411980 0.842447 0.042964 
1.319123 0.844307 0.043039 
1.226266 0.846167 0.043115 
1.133409 0.848027 0.043190 
1.040552 0.849886 0.043265 
0.947694 0.851746 0.043341 
0.854837 0.853606 0.043416 
0.761980 0.855465 0.043491 
0.669123 0.857325 0.043566 
0.576266 0.859185 0.043642 
0.483409 0.861044 0.043717 
0.390552 0.862904 0.043792 
1.503973 0.795714 0.088015 
1.411115 0.797573 0.088090 
1.318258 0.799433 0.088165 
1.225401 0.801293 0.088241 
1.132544 0.803152 0.088316 
1.039687 0.805012 0.088391 
0.946830 0.806872 0.088466 
0.853973 0.808731 0.088542 
0.761115 0.810591 0.088617 
0.668258 0.812451 0.088692 
0.575401 0.814311 0.088768 
0.482544 0.816170 0.088843 
0.389687 0.818030 0.088918 
1.599803 0.940783 0.127845 
1.595725 0.737150 0.128414 
1.595659 0.736925 0.047782 
1.599727 0.940004 0.048003 
1.596362 0.773152 0.018027 
1.596476 0.773543 0.157966 
1.598962 0.903011 0.016771 
1.599100 0.904556 0.157600 
1.597064 0.807714 0.030416 
1.597157 0.808035 0.145384 
1.598289 0.868941 0.029243 
1.598398 0.869994 0.145211 
1.599008 0.901431 0.118820 
1.596503 0.776345 0.119252 
1.596452 0.776170 0.056725 
1.598935 0.900259 0.053757 
1.595912 0.748047 0.088068 
1.599530 0.928700 0.086819 
0.341832 0.846828 0.116630 
1.552984 0.822571 0.115648 
0.715156 0.834084 0.111092 
0.808013 0.832224 0.111016 
0.900870 0.830365 0.110941 
0.622299 0.835944 0.111167 
1.179441 0.824785 0.110715 
0.436584 0.839663 0.111318 
0.993727 0.828505 0.110866 
0.529441 0.837803 0.111242 
1.086584 0.826645 0.110791 
1.272299 0.822926 0.110640 
1.365156 0.821066 0.110565 
1.458013 0.819206 0.110489 
0.330427 0.831381 0.101058 
1.563738 0.806681 0.100058 
0.342523 0.881328 0.116533 
1.553675 0.857071 0.115551 
0.808914 0.877224 0.110891 
0.716057 0.879084 0.110966 
0.901771 0.875365 0.110815 
0.623200 0.880944 0.111041 
0.994628 0.873505 0.110740 
0.530343 0.882803 0.111116 
0.437486 0.884663 0.111192 
1.180343 0.869785 0.110589 
1.087486 0.871645 0.110665 
1.273200 0.867926 0.110514 
1.366057 0.866066 0.110439 
1.458914 0.864206 0.110364 
0.331743 0.897131 0.100874 
1.565055 0.872431 0.099874 
0.297730 0.864852 0.089018 
0.297380 0.847111 0.096300 
0.297568 0.857447 0.071042 
0.297885 0.871904 0.106942 
0.298086 0.882871 0.082088 
1.552939 0.822416 0.060148 
0.341585 0.836202 0.071659 
0.715119 0.833958 0.066092 
0.807976 0.832098 0.066016 
0.900834 0.830239 0.065941 
0.622262 0.835818 0.066167 
1.086548 0.826519 0.065791 
0.529405 0.837678 0.066242 
0.993691 0.828379 0.065866 
1.179405 0.824660 0.065715 
0.436548 0.839537 0.066318 
1.272262 0.822800 0.065640 
1.365119 0.820940 0.065565 
1.457976 0.819080 0.065489 
1.563719 0.806613 0.075808 
0.330806 0.852005 0.055999 
0.342478 0.881172 0.061033 
1.553849 0.867445 0.070522 
0.716020 0.878958 0.065966 
0.808878 0.877098 0.065891 
0.901735 0.875239 0.065815 
0.623163 0.880818 0.066041 
1.180306 0.869660 0.065589 
0.994592 0.873379 0.065740 
1.087449 0.871519 0.065665 
0.530306 0.882678 0.066116 
0.437449 0.884537 0.066192 
1.273163 0.867800 0.065514 
1.366020 0.865940 0.065439 
1.458878 0.864080 0.065364 
0.331724 0.897063 0.076624 
1.564603 0.851555 0.054932 
0.412136 0.607529 -0.000517 
0.334041 0.375645 0.000195 
0.378067 0.806223 -0.001040 
0.524008 0.726953 -0.000946 
0.531354 0.566038 -0.000505 
1.033724 0.848596 -0.001726 
0.316847 0.695195 -0.000678 
0.428891 0.484147 -0.000189 
0.285111 0.509190 -0.000134 
0.232062 0.204603 0.000759 
0.616806 0.844126 -0.001352 
0.262087 0.790085 -0.000894 
0.425717 0.711191 -0.000817 
1.172357 0.844402 -0.001834 
0.387772 0.221008 0.000578 
1.364259 0.839998 -0.001988 
0.507448 0.849347 -0.001272 
0.489268 0.646890 -0.000693 
0.465139 0.352982 0.000145 
0.585661 0.643992 -0.000769 
0.307140 0.602286 -0.000411 
0.221800 0.376810 0.000289 
0.766016 0.837705 -0.001463 
0.536649 0.468372 -0.000238 
1.096042 0.794927 -0.001630 
0.712744 0.533841 -0.000573 
0.901964 0.908530 -0.001778 
0.932703 0.781592 -0.001452 
0.826940 0.531761 -0.000666 
0.317452 0.901372 -0.001252 
0.256540 0.654160 -0.000512 
0.455272 0.539889 -0.000366 
0.364829 0.524323 -0.000245 
0.397541 0.899031 -0.001315 
0.587407 0.549159 -0.000507 
1.017144 0.769112 -0.001490 
0.623223 0.755313 -0.001111 
0.984768 0.650060 -0.001131 
0.157362 0.123859 0.001048 
0.185909 0.814706 -0.000897 
1.272938 0.786230 -0.001759 
1.462872 0.783656 -0.001917 
0.164688 0.299340 0.000554 
0.327121 0.128854 0.000887 
0.378337 0.661224 -0.000637 
0.929854 0.573631 -0.000871 
0.201448 0.466266 0.000058 
0.473549 0.769384 -0.001020 
0.260045 0.723863 -0.000709 
0.352586 0.453088 -0.000036 
0.198146 0.912422 -0.001179 
0.276430 0.306257 0.000438 
1.100467 0.910582 -0.001956 
1.269529 0.887267 -0.002037 
0.253160 0.578885 -0.000300 
1.457694 0.895555 -0.002223 
0.570982 0.917856 -0.001517 
0.441887 0.159079 0.000704 
0.369592 0.734173 -0.000832 
0.469410 0.258904 0.000402 
0.422044 0.078738 0.000944 
0.279312 0.428604 0.000095 
0.690388 0.910638 -0.001601 
0.611938 0.595947 -0.000658 
0.581506 0.495056 -0.000351 
0.528798 0.392407 -0.000020 
0.551883 0.790001 -0.001145 
0.473380 0.589643 -0.000520 
[...]
POINT_DATA 749
SCALARS u float 1
LOOKUP_TABLE default
0.058337
0.045521
0.035994
0.017653
0.039931
0.038499
0.024101
0.026163
0.019875
0.011385
0.025040
0.023110
0.018083
0.011361
0.058893
0.045768
0.036893
0.018287
0.040848
0.039543
0.023113
0.025109
0.019863
0.011261
0.025490
0.023597
0.018139
0.011045
0.023574
0.024102
0.023596
0.024223
0.031329
0.030841
0.030881
0.031398
0.054687
0.051296
0.048220
0.055129
0.051999
0.048963
0.046038
0.043249
0.040621
0.038190
0.037958
0.038722
0.034115
0.029742
0.025385
0.021055
0.016771
0.012580
0.008623
0.005432
0.004871
0.007551
0.011374
0.015517
0.019781
0.024366
0.013503
0.028332
0.031693
0.035104
0.038551
0.042025
0.021897
0.015390
0.014637
0.020136
0.020305
0.012253
0.014136
0.016676
0.019621
0.022813
0.055184
0.051723
0.048563
0.055718
0.052623
0.049626
0.046743
0.043998
0.041419
0.039038
0.038866
0.039713
0.035160
0.030786
0.026428
0.022095
0.017804
0.013596
0.009580
0.006147
0.004781
0.006855
0.010498
0.014576
0.018810
0.023310
0.013868
0.028730
0.032049
0.035425
0.038843
0.042293
0.022150
0.015266
0.014624
0.020441
0.020858
0.011629
0.013307
0.015733
0.018617
0.021776
0.058613
0.045641
0.036443
0.017965
0.040388
0.039021
0.023606
0.025636
0.019861
0.011310
0.025260
0.023349
0.018103
0.011191
0.023908
0.024283
0.023837
0.023466
0.030753
0.031126
0.031465
0.031105
0.019885
0.016261
0.012759
0.009513
0.006895
0.005825
0.007048
0.009734
0.013007
0.016521
0.020151
0.023844
0.027574
0.019859
0.016166
0.012555
0.009125
0.006185
0.004752
0.006022
0.008904
0.012314
0.015917
0.019606
0.023341
0.027103
0.020411
0.016783
0.013269
0.009990
0.007272
0.005942
0.006862
0.009392
0.012596
0.016077
0.019688
0.023369
0.027092
0.020604
0.017077
0.013715
0.010672
0.008309
0.007317
0.008208
0.010514
0.013530
0.016880
0.020400
0.024015
0.027688
0.023273
0.024665
0.025140
0.023724
0.024857
0.024031
0.023945
0.023132
0.024427
0.023749
0.024000
0.023321
0.023362
0.024226
0.024595
0.023739
0.024754
0.023505
0.029549
0.022045
0.014930
0.011609
0.008715
0.018450
0.008695
0.025757
0.006819
0.022073
0.006810
0.011584
0.014903
0.018422
0.030027
0.022720
0.029342
0.021785
0.010919
0.014398
0.007778
0.018020
0.005579
0.021713
0.025447
0.007771
0.005575
0.010911
0.014389
0.018011
0.029635
0.022234
0.031085
0.031235
0.031032
0.031144
0.030953
0.022371
0.029387
0.014724
0.011429
0.008591
0.018229
0.006943
0.021844
0.006807
0.008911
0.025522
0.011831
0.015161
0.018684
0.022862
0.029636
0.029039
0.021986
0.014174
0.010715
0.007621
0.017786
0.007995
0.005539
0.005712
0.021473
0.025204
0.011160
0.014647
0.018272
0.029502
0.022615
0.029507
0.037663
0.027788
0.023193
0.026415
0.006034
0.031515
0.031802
0.036061
0.045530
0.018015
0.032561
0.027126
0.008587
0.040604
0.015259
0.022262
0.025964
0.034406
0.022721
0.033407
0.041272
0.012513
0.028934
0.008289
0.022177
0.006886
0.009145
0.019852
0.029636
0.034431
0.029545
0.032959
0.026388
0.025129
0.008728
0.019066
0.013400
0.050075
0.035429
0.012964
0.019736
0.045081
0.045135
0.029725
0.016830
0.039925
0.024458
0.033339
0.035067
0.034475
0.041336
0.005460
0.011183
0.035823
0.018410
0.019314
0.041225
0.028941
0.037247
0.044418
0.038097
0.014599
0.023100
0.026863
0.031443
0.021175
0.027762
0.015785
0.034641
0.048849
0.038056
0.027667
0.037961
0.020196
0.047970
0.004591
0.034558
0.010829
0.016660
0.010178
0.025159
0.028787
0.021617
0.009969
0.030816
0.025334
0.014008
0.031698
0.022936
0.024553
0.013883
0.023937
0.010170
0.031572
0.023178
0.042125
0.027113
0.025018
0.033985
0.012690
0.031975
0.019768
0.023166
0.008250
0.029810
0.032202
0.030567
0.006803
0.028260
0.043115
0.021642
0.031457
0.026662
0.039525
0.010182
0.006652
0.038211
0.052174
0.036400
0.033919
0.036323
0.020076
0.030313
0.038211
0.028790
0.024018
0.026957
0.005857
0.032369
0.032507
0.036815
0.046159
0.018869
0.033485
0.028013
0.007740
0.041008
0.014271
0.023192
0.026699
0.034941
0.023389
0.034092
0.041944
0.013297
0.029508
0.007717
0.022550
0.007614
0.009393
0.020027
0.030631
0.035188
0.030261
0.033637
0.027376
0.025675
0.008592
0.019828
0.013276
0.050645
0.036460
0.012037
0.018685
0.045731
0.045559
0.030558
0.016810
0.040649
0.025331
0.034217
0.035657
0.035549
0.041936
0.004838
0.010225
0.036576
0.017378
0.020260
0.041581
0.029815
0.037630
0.044746
0.038750
0.015507
0.023700
0.027374
0.031894
0.021953
0.028447
0.016592
0.035245
0.049497
0.038584
0.028445
0.038824
0.020873
0.048520
0.004933
0.035487
0.010086
0.015669
0.011066
0.025815
0.029410
0.020595
0.010566
0.031740
0.026164
0.013033
0.032429
0.023927
0.025146
0.014524
0.024685
0.010256
0.032170
0.022120
0.042677
0.027675
0.025974
0.034397
0.012503
0.032761
0.019875
0.023571
0.007352
0.030787
0.033199
0.031267
0.007138
0.029282
0.043815
0.022394
0.032486
0.027572
0.040164
0.009732
0.006071
0.038986
0.052757
0.037391
0.034645
0.037359
0.020972
0.033514
0.040636
0.029824
0.036984
0.043401
0.027385
0.027195
0.043472
0.022846
0.020901
0.020837
0.014160
0.017412
0.017391
0.015276
0.013010
0.012949
0.015562
0.015759
0.012135
0.012191
0.013671
0.020646
0.019457
0.021501
0.019587
0.021707
0.021545
0.012605
0.017644
0.020981
0.014878
0.011467
0.023321
0.023790
0.011601
0.032336
0.028070
0.023736
0.019423
0.015171
0.011052
0.007293
0.004826
0.005698
0.008984
0.012963
0.017033
0.020568
0.036047
0.036830
0.021925
0.053101
0.049993
0.047360
0.056227
0.054058
0.047804
0.039619
0.044907
0.050822
0.042240
0.037945
0.056618
0.056593
0.037541
0.038161
0.039503
0.037697
0.038965
0.038798
0.039182
0.039509
0.039868
0.039217
0.010015
0.031471
0.031176
0.028726
0.033682
0.030489
0.030303
0.029986
0.026614
0.029008
0.027738
0.029364
0.029026
0.034395
0.034143
0.032153
0.031919
0.032909
0.032045
0.033988
0.032583
0.024310
0.028220
0.037947
0.036714
0.025226
0.026348
0.012733
0.021526
0.021218
0.024094
0.023773
0.034165
0.034747
0.034397
0.026711
0.026380
0.039908
0.039099
0.014800
0.040612
0.040064
0.038321
0.036103
0.038075
0.036924
0.037464
0.037110
0.033812
0.033799
0.031700
0.022784
0.022508
0.024064
0.026198
0.030008
0.029794
0.027981
0.027098
0.035264
0.037739
0.034978
0.037443
0.032843
0.032570
0.036449
0.037989
0.024933
0.027431
0.009788
0.031949
0.031759
0.011003
0.035873
0.034017
0.025126
0.036597
0.036556
0.025346
0.019027
0.018737
0.042247
0.044568
0.046193
0.044693
0.030231
0.040353
0.039837
0.033433
0.033761
0.011303
0.033847
0.035734
0.036217
0.023889
0.025317
0.035168
0.022414
0.019895
0.017466
0.017081
0.038398
0.053684
0.051683
0.032968
0.031513
0.030120
0.015171
0.033513
0.032454
0.031102
0.013078
0.032715
0.033090
0.033088
0.033272
0.032902
0.032778
0.032714
0.031320
0.032904
0.034284
0.035666
0.033152
0.032104
0.032138
0.034653
0.036037
0.037422
0.035868
0.036260
0.036222
0.034479
0.034885
0.034838
0.034469
0.033812
0.033693
0.033332
0.033456
0.033278
0.032824
0.033250
0.032630
0.032279
0.029927
0.023427
