# vtk DataFile Version 2.0
Unstructured Grid Example
ASCII
DATASET UNSTRUCTURED_GRID
POINTS 749 float
-0.019724 0.021029 0.001516 
0.480276 0.010830 0.001103 
0.194555 0.716949 -0.000644 
0.694555 0.706750 -0.001056 
0.094555 0.718989 -0.000561 
0.100674 1.018989 -0.001416 
1.600674 0.988391 -0.002654 
1.594555 0.688391 -0.001800 
0.905475 0.502364 -0.000664 
0.994555 0.700630 -0.001304 
0.633332 0.507915 -0.000440 
0.648638 0.557624 -0.000594 
0.891495 0.552670 -0.000794 
1.044555 0.699610 -0.001345 
-0.019576 0.021542 0.181516 
0.480424 0.011342 0.181103 
0.194703 0.717462 0.179356 
0.694703 0.707263 0.178944 
0.094703 0.719502 0.179439 
0.100823 1.019502 0.178584 
1.600823 0.988904 0.177346 
1.594703 0.688904 0.178200 
0.905624 0.502877 0.179336 
0.994703 0.701143 0.178696 
0.633481 0.508428 0.179560 
0.648786 0.558137 0.179406 
0.891644 0.553183 0.179206 
1.044703 0.700123 0.178655 
1.597726 0.838775 0.132773 
1.597652 0.838519 0.042773 
1.598607 0.883647 0.087645 
1.596771 0.793647 0.087901 
0.297726 0.865294 0.133847 
0.297652 0.865037 0.043847 
0.298607 0.910166 0.088718 
0.296771 0.820166 0.088975 
0.105276 0.018479 0.001412 
0.230276 0.015929 0.001309 
0.355276 0.013379 0.001206 
0.007061 0.108019 0.001246 
0.033845 0.195009 0.000976 
0.060630 0.281999 0.000706 
0.087415 0.368989 0.000436 
0.114200 0.455979 0.000166 
0.140985 0.542969 -0.000104 
0.167770 0.629959 -0.000374 
0.144555 0.717969 -0.000602 
0.097615 0.868989 -0.000988 
0.207817 1.016803 -0.001504 
0.314960 1.014618 -0.001592 
0.422103 1.012432 -0.001681 
0.529246 1.010247 -0.001769 
0.636389 1.008061 -0.001858 
0.743532 1.005876 -0.001946 
0.850674 1.003690 -0.002035 
0.957817 1.001504 -0.002123 
1.064960 0.999319 -0.002212 
1.172103 0.997133 -0.002300 
1.279246 0.994948 -0.002389 
1.386389 0.992762 -0.002477 
1.493532 0.990577 -0.002566 
1.597615 0.838391 -0.002227 
0.844555 0.703690 -0.001180 
0.607823 0.425068 -0.000182 
0.582313 0.342220 0.000075 
0.556804 0.259372 0.000332 
0.531295 0.176525 0.000589 
0.505785 0.093677 0.000846 
0.769404 0.505140 -0.000552 
0.975015 0.600987 -0.001005 
0.943025 0.626650 -0.001049 
0.770066 0.555147 -0.000694 
0.671596 0.632187 -0.000825 
1.136221 0.697740 -0.001421 
1.227888 0.695870 -0.001497 
1.319555 0.694001 -0.001573 
1.411221 0.692131 -0.001648 
1.502888 0.690261 -0.001724 
0.105424 0.018992 0.181412 
0.230424 0.016442 0.181309 
0.355424 0.013892 0.181206 
0.007209 0.108532 0.181246 
0.033994 0.195522 0.180976 
0.060779 0.282512 0.180706 
0.087564 0.369502 0.180436 
0.114349 0.456492 0.180166 
0.141134 0.543482 0.179896 
0.167919 0.630472 0.179626 
0.144703 0.718482 0.179398 
0.097763 0.869502 0.179012 
0.207966 1.017316 0.178496 
0.315109 1.015131 0.178408 
0.422252 1.012945 0.178319 
0.529394 1.010759 0.178231 
0.636537 1.008574 0.178142 
0.743680 1.006388 0.178054 
0.850823 1.004203 0.177965 
0.957966 1.002017 0.177877 
1.065109 0.999832 0.177788 
1.172252 0.997646 0.177700 
1.279394 0.995460 0.177611 
1.386537 0.993275 0.177523 
1.493680 0.991089 0.177434 
1.597763 0.838904 0.177773 
0.844703 0.704203 0.178820 
0.607971 0.425581 0.179818 
0.582462 0.342733 0.180075 
0.556953 0.259885 0.180332 
0.531443 0.177038 0.180589 
0.505934 0.094190 0.180846 
0.769552 0.505652 0.179448 
0.975164 0.601500 0.178995 
0.943174 0.627163 0.178951 
0.770215 0.555660 0.179306 
0.671745 0.632700 0.179175 
1.136370 0.698253 0.178579 
1.228037 0.696383 0.178503 
1.319703 0.694513 0.178427 
1.411370 0.692643 0.178352 
1.503037 0.690774 0.178276 
-0.019650 0.021285 0.091516 
0.480350 0.011086 0.091103 
0.194629 0.717206 0.089356 
0.694629 0.707006 0.088944 
0.094629 0.719245 0.089439 
0.100749 1.019245 0.088584 
1.600749 0.988647 0.087346 
1.594629 0.688647 0.088200 
0.905549 0.502620 0.089336 
0.994629 0.700887 0.088696 
0.633407 0.508172 0.089560 
0.648712 0.557880 0.089406 
0.891569 0.552926 0.089206 
1.044629 0.699867 0.088655 
1.597066 0.806918 0.119684 
1.597014 0.806737 0.056044 
1.598312 0.870376 0.055863 
1.598364 0.870558 0.119502 
0.298312 0.896895 0.056936 
0.297014 0.833255 0.057117 
0.297066 0.833436 0.120757 
0.298364 0.897076 0.120576 
1.504869 0.840670 0.132850 
1.412012 0.842564 0.132926 
1.319155 0.844458 0.133003 
1.226298 0.846352 0.133080 
1.133440 0.848246 0.133156 
1.040583 0.850140 0.133233 
0.947726 0.852035 0.133310 
0.854869 0.853929 0.133387 
0.762012 0.855823 0.133463 
0.669155 0.857717 0.133540 
0.576298 0.859611 0.133617 
0.483440 0.861505 0.133693 
0.390583 0.863400 0.133770 
1.505750 0.885541 0.087722 
1.412893 0.887436 0.087798 
1.320035 0.889330 0.087875 
1.227178 0.891224 0.087952 
1.134321 0.893118 0.088028 
1.041464 0.895012 0.088105 
0.948607 0.896906 0.088182 
0.855750 0.898801 0.088258 
0.762893 0.900695 0.088335 
0.670035 0.902589 0.088412 
0.577178 0.904483 0.088488 
0.484321 0.906377 0.088565 
0.391464 0.908271 0.088642 
1.504795 0.840413 0.042850 
1.411937 0.842307 0.042926 
1.319080 0.844202 0.043003 
1.226223 0.846096 0.043080 
1.133366 0.847990 0.043156 
1.040509 0.849884 0.043233 
0.947652 0.851778 0.043310 
0.854795 0.853672 0.043387 
0.761937 0.855567 0.043463 
0.669080 0.857461 0.043540 
0.576223 0.859355 0.043617 
0.483366 0.861249 0.043693 
0.390509 0.863143 0.043770 
1.503914 0.795541 0.087978 
1.411057 0.797436 0.088055 
1.318200 0.799330 0.088131 
1.225342 0.801224 0.088208 
1.132485 0.803118 0.088285 
1.039628 0.805012 0.088361 
0.946771 0.806906 0.088438 
0.853914 0.808801 0.088515 
0.761057 0.810695 0.088591 
0.668200 0.812589 0.088668 
0.575342 0.814483 0.088745 
0.482485 0.816377 0.088821 
0.389628 0.818271 0.088898 
1.599799 0.940579 0.127799 
1.595645 0.736946 0.128379 
1.595579 0.736716 0.047747 
1.599722 0.939795 0.047957 
1.596295 0.772942 0.017990 
1.596410 0.773340 0.157929 
1.598943 0.902801 0.016728 
1.599083 0.904353 0.157556 
1.597010 0.807504 0.030377 
1.597104 0.807832 0.145345 
1.598258 0.868732 0.029201 
1.598368 0.869790 0.145169 
1.598989 0.901226 0.118776 
1.596438 0.776140 0.119215 
1.596386 0.775962 0.056688 
1.598915 0.900051 0.053713 
1.595837 0.747841 0.088032 
1.599521 0.928493 0.086773 
0.341784 0.847089 0.116609 
1.552936 0.822383 0.115609 
0.715106 0.834206 0.111066 
0.807963 0.832312 0.110989 
0.900820 0.830418 0.110912 
0.622249 0.836100 0.111142 
1.179391 0.824735 0.110682 
0.436534 0.839888 0.111296 
0.993677 0.828523 0.110836 
0.529391 0.837994 0.111219 
1.086534 0.826629 0.110759 
1.272249 0.822841 0.110606 
1.365106 0.820947 0.110529 
1.457963 0.819053 0.110452 
0.330373 0.831645 0.101038 
1.563684 0.806487 0.100019 
0.342487 0.881589 0.116511 
1.553640 0.856883 0.115511 
0.808881 0.877312 0.110861 
0.716024 0.879206 0.110937 
0.901738 0.875418 0.110784 
0.623166 0.881100 0.111014 
0.994595 0.873523 0.110707 
0.530309 0.882994 0.111091 
0.437452 0.884888 0.111168 
1.180309 0.869735 0.110554 
1.087452 0.871629 0.110631 
1.273166 0.867841 0.110477 
1.366024 0.865947 0.110401 
1.458881 0.864053 0.110324 
0.331714 0.897395 0.100850 
1.565025 0.872237 0.099832 
0.297688 0.865128 0.088997 
0.297332 0.847387 0.096279 
0.297523 0.857722 0.071021 
0.297846 0.872181 0.106920 
0.298051 0.883146 0.082067 
1.552890 0.822224 0.060109 
0.341532 0.836460 0.071639 
0.715069 0.834078 0.066066 
0.807926 0.832184 0.065989 
0.900783 0.830289 0.065912 
0.622211 0.835972 0.066142 
1.086497 0.826501 0.065759 
0.529354 0.837866 0.066219 
0.993640 0.828395 0.065836 
1.179354 0.824607 0.065682 
0.436497 0.839760 0.066296 
1.272211 0.822713 0.065606 
1.365069 0.820819 0.065529 
1.457926 0.818924 0.065452 
1.563664 0.806418 0.075769 
0.330759 0.852267 0.055979 
0.342442 0.881430 0.061011 
1.553817 0.867254 0.070481 
0.715986 0.879078 0.065937 
0.808844 0.877184 0.065861 
0.901701 0.875289 0.065784 
0.623129 0.880972 0.066014 
1.180272 0.869607 0.065554 
0.994558 0.873395 0.065707 
1.087415 0.871501 0.065631 
0.530272 0.882866 0.066091 
0.437415 0.884760 0.066168 
1.273129 0.867713 0.065477 
1.365986 0.865819 0.065401 
1.458844 0.863924 0.065324 
0.331694 0.897326 0.076600 
1.564565 0.851359 0.054891 
0.411998 0.607756 -0.000527 
0.333816 0.375899 0.000199 
0.378003 0.806464 -0.001059 
0.523915 0.727139 -0.000963 
0.531202 0.566221 -0.000514 
1.033680 0.848594 -0.001758 
0.316741 0.695458 -0.000691 
0.428708 0.484367 -0.000192 
0.284936 0.509463 -0.000136 
0.231773 0.204894 0.000773 
0.616757 0.844279 -0.001377 
0.262015 0.790369 -0.000911 
0.425618 0.711414 -0.000832 
1.172312 0.844348 -0.001868 
0.387491 0.221241 0.000589 
1.364214 0.839873 -0.002025 
0.507401 0.849540 -0.001295 
0.489145 0.647088 -0.000706 
0.464907 0.353187 0.000147 
0.585538 0.644155 -0.000783 
0.306999 0.602552 -0.000419 
0.221576 0.377106 0.000295 
0.765966 0.837802 -0.001490 
0.536460 0.468552 -0.000243 
1.095979 0.794901 -0.001661 
0.712581 0.533956 -0.000583 
0.901941 0.908578 -0.001811 
0.932634 0.781627 -0.001479 
0.826777 0.531833 -0.000678 
0.317423 0.901636 -0.001275 
0.256418 0.654445 -0.000521 
0.455109 0.540100 -0.000373 
0.364660 0.524567 -0.000249 
0.397511 0.899265 -0.001339 
0.587249 0.549320 -0.000516 
1.017071 0.769116 -0.001518 
0.623141 0.755462 -0.001131 
0.984650 0.650075 -0.001152 
0.157043 0.124176 0.001067 
0.185846 0.815019 -0.000913 
1.272873 0.786139 -0.001792 
1.462807 0.783494 -0.001952 
0.164433 0.299657 0.000564 
0.326805 0.129109 0.000904 
0.378219 0.661464 -0.000649 
0.929707 0.573665 -0.000887 
0.201256 0.466570 0.000059 
0.473472 0.769589 -0.001039 
0.259949 0.724147 -0.000722 
0.352390 0.453336 -0.000037 
0.198119 0.912730 -0.001201 
0.276179 0.306532 0.000446 
1.100447 0.910556 -0.001992 
1.269502 0.887178 -0.002075 
0.253010 0.579171 -0.000305 
1.457671 0.895396 -0.002265 
0.570960 0.918026 -0.001545 
0.441583 0.159291 0.000717 
0.369501 0.734416 -0.000848 
0.469143 0.259108 0.000410 
0.421710 0.078957 0.000962 
0.279106 0.428879 0.000097 
0.690364 0.910764 -0.001630 
0.611798 0.596100 -0.000670 
0.581327 0.495219 -0.000358 
0.528581 0.392589 -0.000021 
0.551813 0.790177 -0.001166 
0.473236 0.589847 -0.000530 
[...]
POINT_DATA 749
SCALARS u float 1
LOOKUP_TABLE default
0.058337
0.045521
0.035994
0.017653
0.039931
0.038499
0.024101
0.026163
0.019875
0.011385
0.025040
0.023110
0.018083
0.011361
0.058893
0.045768
0.036893
0.018287
0.040848
0.039543
0.023113
0.025109
0.019863
0.011261
0.025490
0.023597
0.018139
0.011045
0.023574
0.024102
0.023596
0.024223
0.031329
0.030841
0.030881
0.031398
0.054687
0.051296
0.048220
0.055129
0.051999
0.048963
0.046038
0.043249
0.040621
0.038190
0.037958
0.038722
0.034115
0.029742
0.025385
0.021055
0.016771
0.012580
0.008623
0.005432
0.004871
0.007551
0.011374
0.015517
0.019781
0.024366
0.013503
0.028332
0.031693
0.035104
0.038551
0.042025
0.021897
0.015390
0.014637
0.020136
0.020305
0.012253
0.014136
0.016676
0.019621
0.022813
0.055184
0.051723
0.048563
0.055718
0.052623
0.049626
0.046743
0.043998
0.041419
0.039038
0.038866
0.039713
0.035160
0.030786
0.026428
0.022095
0.017804
0.013596
0.009580
0.006147
0.004781
0.006855
0.010498
0.014576
0.018810
0.023310
0.013868
0.028730
0.032049
0.035425
0.038843
0.042293
0.022150
0.015266
0.014624
0.020441
0.020858
0.011629
0.013307
0.015733
0.018617
0.021776
0.058613
0.045641
0.036443
0.017965
0.040388
0.039021
0.023606
0.025636
0.019861
0.011310
0.025260
0.023349
0.018103
0.011191
0.023908
0.024283
0.023837
0.023466
0.030753
0.031126
0.031465
0.031105
0.019885
0.016261
0.012759
0.009513
0.006895
0.005825
0.007048
0.009734
0.013007
0.016521
0.020151
0.023844
0.027574
0.019859
0.016166
0.012555
0.009125
0.006185
0.004752
0.006022
0.008904
0.012314
0.015917
0.019606
0.023341
0.027103
0.020411
0.016783
0.013269
0.009990
0.007272
0.005942
0.006862
0.009392
0.012596
0.016077
0.019688
0.023369
0.027092
0.020604
0.017077
0.013715
0.010672
0.008309
0.007317
0.008208
0.010514
0.013530
0.016880
0.020400
0.024015
0.027688
0.023273
0.024665
0.025140
0.023724
0.024857
0.024031
0.023945
0.023132
0.024427
0.023749
0.024000
0.023321
0.023362
0.024226
0.024595
0.023739
0.024754
0.023505
0.029549
0.022045
0.014930
0.011609
0.008715
0.018450
0.008695
0.025757
0.006819
0.022073
0.006810
0.011584
0.014903
0.018422
0.030027
0.022720
0.029342
0.021785
0.010919
0.014398
0.007778
0.018020
0.005579
0.021713
0.025447
0.007771
0.005575
0.010911
0.014389
0.018011
0.029635
0.022234
0.031085
0.031235
0.031032
0.031144
0.030953
0.022371
0.029387
0.014724
0.011429
0.008591
0.018229
0.006943
0.021844
0.006807
0.008911
0.025522
0.011831
0.015161
0.018684
0.022862
0.029636
0.029039
0.021986
0.014174
0.010715
0.007621
0.017786
0.007995
0.005539
0.005712
0.021473
0.025204
0.011160
0.014647
0.018272
0.029502
0.022615
0.029507
0.037663
0.027788
0.023193
0.026415
0.006034
0.031515
0.031802
0.036061
0.045530
0.018015
0.032561
0.027126
0.008587
0.040604
0.015259
0.022262
0.025964
0.034406
0.022721
0.033407
0.041272
0.012513
0.028934
0.008289
0.022177
0.006886
0.009145
0.019852
0.029636
0.034431
0.029545
0.032959
0.026388
0.025129
0.008728
0.019066
0.013400
0.050075
0.035429
0.012964
0.019736
0.045081
0.045135
0.029725
0.016830
0.039925
0.024458
0.033339
0.035067
0.034475
0.041336
0.005460
0.011183
0.035823
0.018410
0.019314
0.041225
0.028941
0.037247
0.044418
0.038097
0.014599
0.023100
0.026863
0.031443
0.021175
0.027762
0.015785
0.034641
0.048849
0.038056
0.027667
0.037961
0.020196
0.047970
0.004591
0.034558
0.010829
0.016660
0.010178
0.025159
0.028787
0.021617
0.009969
0.030816
0.025334
0.014008
0.031698
0.022936
0.024553
0.013883
0.023937
0.010170
0.031572
0.023178
0.042125
0.027113
0.025018
0.033985
0.012690
0.031975
0.019768
0.023166
0.008250
0.029810
0.032202
0.030567
0.006803
0.028260
0.043115
0.021642
0.031457
0.026662
0.039525
0.010182
0.006652
0.038211
0.052174
0.036400
0.033919
0.036323
0.020076
0.030313
0.038211
0.028790
0.024018
0.026957
0.005857
0.032369
0.032507
0.036815
0.046159
0.018869
0.033485
0.028013
0.007740
0.041008
0.014271
0.023192
0.026699
0.034941
0.023389
0.034092
0.041944
0.013297
0.029508
0.007717
0.022550
0.007614
0.009393
0.020027
0.030631
0.035188
0.030261
0.033637
0.027376
0.025675
0.008592
0.019828
0.013276
0.050645
0.036460
0.012037
0.018685
0.045731
0.045559
0.030558
0.016810
0.040649
0.025331
0.034217
0.035657
0.035549
0.041936
0.004838
0.010225
0.036576
0.017378
0.020260
0.041581
0.029815
0.037630
0.044746
0.038750
0.015507
0.023700
0.027374
0.031894
0.021953
0.028447
0.016592
0.035245
0.049497
0.038584
0.028445
0.038824
0.020873
0.048520
0.004933
0.035487
0.010086
0.015669
0.011066
0.025815
0.029410
0.020595
0.010566
0.031740
0.026164
0.013033
0.032429
0.023927
0.025146
0.014524
0.024685
0.010256
0.032170
0.022120
0.042677
0.027675
0.025974
0.034397
0.012503
0.032761
0.019875
0.023571
0.007352
0.030787
0.033199
0.031267
0.007138
0.029282
0.043815
0.022394
0.032486
0.027572
0.040164
0.009732
0.006071
0.038986
0.052757
0.037391
0.034645
0.037359
0.020972
0.033514
0.040636
0.029824
0.036984
0.043401
0.027385
0.027195
0.043472
0.022846
0.020901
0.020837
0.014160
0.017412
0.017391
0.015276
0.013010
0.012949
0.015562
0.015759
0.012135
0.012191
0.013671
0.020646
0.019457
0.021501
0.019587
0.021707
0.021545
0.012605
0.017644
0.020981
0.014878
0.011467
0.023321
0.023790
0.011601
0.032336
0.028070
0.023736
0.019423
0.015171
0.011052
0.007293
0.004826
0.005698
0.008984
0.012963
0.017033
0.020568
0.036047
0.036830
0.021925
0.053101
0.049993
0.047360
0.056227
0.054058
0.047804
0.039619
0.044907
0.050822
0.042240
0.037945
0.056618
0.056593
0.037541
0.038161
0.039503
0.037697
0.038965
0.038798
0.039182
0.039509
0.039868
0.039217
0.010015
0.031471
0.031176
0.028726
0.033682
0.030489
0.030303
0.029986
0.026614
0.029008
0.027738
0.029364
0.029026
0.034395
0.034143
0.032153
0.031919
0.032909
0.032045
0.033988
0.032583
0.024310
0.028220
0.037947
0.036714
0.025226
0.026348
0.012733
0.021526
0.021218
0.024094
0.023773
0.034165
0.034747
0.034397
0.026711
0.026380
0.039908
0.039099
0.014800
0.040612
0.040064
0.038321
0.036103
0.038075
0.036924
0.037464
0.037110
0.033812
0.033799
0.031700
0.022784
0.022508
0.024064
0.026198
0.030008
0.029794
0.027981
0.027098
0.035264
0.037739
0.034978
0.037443
0.032843
0.032570
0.036449
0.037989
0.024933
0.027431
0.009788
0.031949
0.031759
0.011003
0.035873
0.034017
0.025126
0.036597
0.036556
0.025346
0.019027
0.018737
0.042247
0.044568
0.046193
0.044693
0.030231
0.040353
0.039837
0.033433
0.033761
0.011303
0.033847
0.035734
0.036217
0.023889
0.025317
0.035168
0.022414
0.019895
0.017466
0.017081
0.038398
0.053684
0.051683
0.032968
0.031513
0.030120
0.015171
0.033513
0.032454
0.031102
0.013078
0.032715
0.033090
0.033088
0.033272
0.032902
0.032778
0.032714
0.031320
0.032904
0.034284
0.035666
0.033152
0.032104
0.032138
0.034653
0.036037
0.037422
0.035868
0.036260
0.036222
0.034479
0.034885
0.034838
0.034469
0.033812
0.033693
0.033332
0.033456
0.033278
0.032824
0.033250
0.032630
0.032279
0.029927
0.023427
