# vtk DataFile Version 2.0
Unstructured Grid Example
ASCII
DATASET UNSTRUCTURED_GRID
POINTS 749 float
0.018126 -0.019325 -0.001393 
0.518126 -0.009952 -0.001013 
0.205004 0.684424 0.000591 
0.705004 0.693797 0.000971 
0.105004 0.682549 0.000516 
0.099380 0.982549 0.001301 
1.599380 1.010669 0.002439 
1.605004 0.710669 0.001654 
0.923753 0.497827 0.000610 
1.005004 0.699421 0.001199 
0.651610 0.492726 0.000404 
0.664959 0.542994 0.000546 
0.907816 0.547546 0.000730 
1.055004 0.700358 0.001236 
0.017990 -0.019796 0.178607 
0.517990 -0.010423 0.178987 
0.204867 0.683953 0.180591 
0.704867 0.693326 0.180971 
0.104867 0.682078 0.180516 
0.099244 0.982078 0.181301 
1.599244 1.010197 0.182439 
1.604867 0.710197 0.181654 
0.923617 0.497356 0.180610 
1.004867 0.698950 0.181199 
0.651474 0.492255 0.180404 
0.664822 0.542522 0.180546 
0.907679 0.547075 0.180730 
1.054867 0.699887 0.181236 
1.602090 0.860315 0.137047 
1.602158 0.860551 0.047047 
1.601280 0.905433 0.092164 
1.602967 0.815433 0.091929 
0.302090 0.835945 0.136060 
0.302158 0.836181 0.046060 
0.301280 0.881063 0.091178 
0.302967 0.791063 0.090942 
0.143126 -0.016982 -0.001298 
0.268126 -0.014639 -0.001203 
0.393126 -0.012295 -0.001108 
0.041486 0.068643 -0.001145 
0.064846 0.156612 -0.000897 
0.088206 0.244581 -0.000649 
0.111565 0.332549 -0.000401 
0.134925 0.420518 -0.000153 
0.158285 0.508487 0.000095 
0.181644 0.596455 0.000343 
0.155004 0.683487 0.000553 
0.102192 0.832549 0.000908 
0.206523 0.984558 0.001382 
0.313666 0.986566 0.001463 
0.420809 0.988575 0.001545 
0.527952 0.990583 0.001626 
0.635095 0.992592 0.001707 
0.742237 0.994600 0.001789 
0.849380 0.996609 0.001870 
0.956523 0.998617 0.001951 
1.063666 1.000626 0.002033 
1.170809 1.002635 0.002114 
1.277952 1.004643 0.002195 
1.385095 1.006652 0.002277 
1.492237 1.008660 0.002358 
1.602192 0.860669 0.002047 
0.855004 0.696609 0.001085 
0.629363 0.408946 0.000168 
0.607116 0.325166 -0.000069 
0.584868 0.241387 -0.000305 
0.562621 0.157607 -0.000541 
0.540374 0.073827 -0.000777 
0.787682 0.495277 0.000507 
0.989379 0.599093 0.000923 
0.956410 0.623484 0.000964 
0.786387 0.545270 0.000638 
0.684981 0.618395 0.000758 
1.146671 0.702077 0.001306 
1.238337 0.703795 0.001376 
1.330004 0.705513 0.001445 
1.421671 0.707232 0.001515 
1.513337 0.708950 0.001584 
0.142990 -0.017453 0.178702 
0.267990 -0.015110 0.178797 
0.392990 -0.012767 0.178892 
0.041349 0.068172 0.178855 
0.064709 0.156141 0.179103 
0.088069 0.244110 0.179351 
0.111429 0.332078 0.179599 
0.134788 0.420047 0.179847 
0.158148 0.508015 0.180095 
0.181508 0.595984 0.180343 
0.154867 0.683015 0.180553 
0.102056 0.832078 0.180908 
0.206386 0.984087 0.181382 
0.313529 0.986095 0.181463 
0.420672 0.988104 0.181545 
0.527815 0.990112 0.181626 
0.634958 0.992121 0.181707 
0.742101 0.994129 0.181789 
0.849244 0.996138 0.181870 
0.956386 0.998146 0.181951 
1.063529 1.000155 0.182033 
1.170672 1.002163 0.182114 
1.277815 1.004172 0.182195 
1.384958 1.006180 0.182277 
1.492101 1.008189 0.182358 
1.602056 0.860197 0.182047 
0.854867 0.696138 0.181085 
0.629226 0.408475 0.180168 
0.606979 0.324695 0.179931 
0.584732 0.240916 0.179695 
0.562484 0.157136 0.179459 
0.540237 0.073356 0.179223 
0.787545 0.494805 0.180507 
0.989242 0.598622 0.180923 
0.956273 0.623012 0.180964 
0.786251 0.544799 0.180638 
0.684845 0.617924 0.180758 
1.146534 0.701605 0.181306 
1.238201 0.703324 0.181376 
1.329867 0.705042 0.181445 
1.421534 0.706761 0.181515 
1.513201 0.708479 0.181584 
0.018058 -0.019561 0.088607 
0.518058 -0.010188 0.088987 
0.204936 0.684188 0.090591 
0.704936 0.693561 0.090971 
0.104936 0.682314 0.090516 
0.099312 0.982314 0.091301 
1.599312 1.010433 0.092439 
1.604936 0.710433 0.091654 
0.923685 0.497592 0.090610 
1.004936 0.699185 0.091199 
0.651542 0.492490 0.090404 
0.664891 0.542758 0.090546 
0.907748 0.547311 0.090730 
1.054936 0.700123 0.091236 
1.602696 0.828530 0.123783 
1.602744 0.828696 0.060143 
1.601551 0.892336 0.060310 
1.601503 0.892169 0.123950 
0.301551 0.867966 0.059323 
0.302744 0.804326 0.059157 
0.302696 0.804160 0.122796 
0.301503 0.867799 0.122963 
1.509233 0.858574 0.136976 
1.416375 0.856834 0.136906 
1.323518 0.855093 0.136835 
1.230661 0.853352 0.136765 
1.137804 0.851612 0.136694 
1.044947 0.849871 0.136624 
0.952090 0.848130 0.136553 
0.859233 0.846389 0.136483 
0.766375 0.844649 0.136412 
0.673518 0.842908 0.136342 
0.580661 0.841167 0.136271 
0.487804 0.839427 0.136201 
0.394947 0.837686 0.136130 
1.508423 0.903692 0.092094 
1.415566 0.901952 0.092023 
1.322709 0.900211 0.091953 
1.229852 0.898470 0.091882 
1.136995 0.896729 0.091812 
1.044137 0.894989 0.091741 
0.951280 0.893248 0.091671 
0.858423 0.891507 0.091601 
0.765566 0.889767 0.091530 
0.672709 0.888026 0.091460 
0.579852 0.886285 0.091389 
0.486995 0.884544 0.091319 
0.394137 0.882804 0.091248 
1.509301 0.858810 0.046976 
1.416444 0.857069 0.046906 
1.323587 0.855329 0.046835 
1.230729 0.853588 0.046765 
1.137872 0.851847 0.046694 
1.045015 0.850106 0.046624 
0.952158 0.848366 0.046553 
0.859301 0.846625 0.046483 
0.766444 0.844884 0.046412 
0.673587 0.843144 0.046342 
0.580729 0.841403 0.046271 
0.487872 0.839662 0.046201 
0.395015 0.837921 0.046130 
1.510110 0.813692 0.091858 
1.417253 0.811952 0.091788 
1.324396 0.810211 0.091717 
1.231539 0.808470 0.091647 
1.138682 0.806729 0.091576 
1.045825 0.804989 0.091506 
0.952967 0.803248 0.091435 
0.860110 0.801507 0.091365 
0.767253 0.799767 0.091294 
0.674396 0.798026 0.091224 
0.581539 0.796285 0.091154 
0.488682 0.794544 0.091083 
0.395825 0.792804 0.091013 
1.600185 0.962144 0.132629 
1.604002 0.758511 0.132096 
1.604063 0.758722 0.051464 
1.600256 0.961797 0.052784 
1.603405 0.795110 0.021905 
1.603299 0.794743 0.161845 
1.600971 0.924974 0.021353 
1.600843 0.925756 0.162188 
1.602748 0.829604 0.034481 
1.602661 0.829303 0.149449 
1.601601 0.890837 0.033640 
1.601499 0.891262 0.149612 
1.600929 0.922841 0.123391 
1.603274 0.797755 0.123146 
1.603321 0.797918 0.060619 
1.600997 0.922022 0.058323 
1.603826 0.769626 0.091809 
1.600440 0.950283 0.091538 
0.346850 0.819573 0.118798 
1.558002 0.842278 0.119718 
0.720386 0.821337 0.113818 
0.813243 0.823078 0.113889 
0.906100 0.824819 0.113959 
0.627529 0.819597 0.113748 
1.184671 0.830041 0.114170 
0.441814 0.816115 0.113607 
0.998957 0.826559 0.114030 
0.534671 0.817856 0.113677 
1.091814 0.828300 0.114100 
1.277529 0.831782 0.114241 
1.370386 0.833522 0.114311 
1.463243 0.835263 0.114382 
0.336075 0.803781 0.103124 
1.569387 0.826901 0.104060 
0.346203 0.854073 0.118889 
1.557356 0.876778 0.119808 
0.812399 0.868078 0.114006 
0.719542 0.866337 0.113936 
0.905256 0.869819 0.114077 
0.626685 0.864597 0.113865 
0.998114 0.871559 0.114147 
0.533828 0.862856 0.113795 
0.440971 0.861115 0.113725 
1.183828 0.875041 0.114288 
1.090971 0.873300 0.114218 
1.276685 0.876782 0.114359 
1.369542 0.878522 0.114429 
1.462399 0.880263 0.114500 
0.334843 0.869531 0.103296 
1.568154 0.892651 0.104232 
0.302124 0.836024 0.091210 
0.302452 0.818244 0.098395 
0.302276 0.828717 0.073194 
0.301980 0.842979 0.109172 
0.301792 0.854080 0.084378 
1.558045 0.842423 0.064218 
0.347081 0.809191 0.073771 
0.720420 0.821455 0.068818 
0.813277 0.823196 0.068889 
0.906134 0.824937 0.068959 
0.627563 0.819714 0.068748 
1.091848 0.828418 0.069100 
0.534706 0.817974 0.068677 
0.998991 0.826677 0.069030 
1.184706 0.830159 0.069170 
0.441848 0.816233 0.068607 
1.277563 0.831899 0.069241 
1.370420 0.833640 0.069311 
1.463277 0.835381 0.069382 
1.569405 0.826965 0.079810 
0.335720 0.824649 0.058179 
0.346245 0.854218 0.063389 
1.557193 0.887395 0.074835 
0.719576 0.866455 0.068936 
0.812433 0.868196 0.069006 
0.905291 0.869937 0.069077 
0.626719 0.864714 0.068865 
1.183862 0.875159 0.069288 
0.998148 0.871677 0.069147 
1.091005 0.873418 0.069218 
0.533862 0.862974 0.068795 
0.441005 0.861233 0.068725 
1.276719 0.876899 0.069359 
1.369576 0.878640 0.069429 
1.462433 0.880381 0.069500 
0.334861 0.869595 0.079046 
1.568577 0.872019 0.059178 
0.426546 0.583826 0.000484 
0.357499 0.349096 -0.000183 
0.384803 0.781045 0.000973 
0.533702 0.707493 0.000885 
0.547280 0.546988 0.000473 
1.038309 0.848797 0.001615 
0.327934 0.667731 0.000635 
0.448071 0.461189 0.000177 
0.303432 0.480640 0.000125 
0.262229 0.174233 -0.000710 
0.621887 0.828172 0.001265 
0.269538 0.760425 0.000837 
0.436099 0.687934 0.000765 
1.176996 0.849980 0.001717 
0.417182 0.196661 -0.000541 
1.368920 0.853017 0.001861 
0.512412 0.829150 0.001190 
0.502093 0.626146 0.000649 
0.489374 0.331531 -0.000135 
0.598524 0.626987 0.000719 
0.321835 0.574518 0.000385 
0.245301 0.345909 -0.000271 
0.771231 0.827539 0.001370 
0.556356 0.449603 0.000223 
1.102659 0.797585 0.001526 
0.729777 0.521847 0.000536 
0.904328 0.903579 0.001664 
0.939963 0.777930 0.001359 
0.843965 0.524194 0.000623 
0.320547 0.873772 0.001172 
0.269264 0.624390 0.000479 
0.472270 0.517911 0.000343 
0.382501 0.498852 0.000229 
0.400664 0.874536 0.001230 
0.603944 0.532294 0.000474 
1.024823 0.768733 0.001395 
0.631742 0.739676 0.001040 
0.997085 0.648519 0.001059 
0.190717 0.090657 -0.000981 
0.192465 0.782074 0.000839 
1.279754 0.795752 0.001647 
1.469640 0.800541 0.001794 
0.191235 0.266286 -0.000519 
0.360150 0.102228 -0.000830 
0.390692 0.636169 0.000596 
0.945176 0.570020 0.000816 
0.221497 0.434507 -0.000054 
0.481639 0.747936 0.000955 
0.270064 0.694175 0.000663 
0.373028 0.427197 0.000034 
0.200905 0.880188 0.001104 
0.302622 0.277528 -0.000410 
1.102598 0.913322 0.001831 
1.272432 0.896578 0.001907 
0.268804 0.549043 0.000280 
1.460130 0.912152 0.002081 
0.573241 0.900069 0.001420 
0.473655 0.136877 -0.000659 
0.379127 0.708723 0.000779 
0.497287 0.237692 -0.000377 
0.456942 0.055830 -0.000884 
0.300760 0.399892 -0.000089 
0.692834 0.897484 0.001498 
0.626642 0.579997 0.000616 
0.600144 0.478005 0.000329 
0.551455 0.373393 0.000019 
0.559112 0.771573 0.001072 
0.488437 0.568328 0.000487 
0.699783 0.785498 0.001208 
0.431534 0.377549 -0.000055 
0.149113 0.175857 -0.000786 
[...]
POINT_DATA 749
SCALARS u float 1
LOOKUP_TABLE default
0.058337
0.045521
0.035994
0.017653
0.039931
0.038499
0.024101
0.026163
0.019875
0.011385
0.025040
0.023110
0.018083
0.011361
0.058893
0.045768
0.036893
0.018287
0.040848
0.039543
0.023113
0.025109
0.019863
0.011261
0.025490
0.023597
0.018139
0.011045
0.023574
0.024102
0.023596
0.024223
0.031329
0.030841
0.030881
0.031398
0.054687
0.051296
0.048220
0.055129
0.051999
0.048963
0.046038
0.043249
0.040621
0.038190
0.037958
0.038722
0.034115
0.029742
0.025385
0.021055
0.016771
0.012580
0.008623
0.005432
0.004871
0.007551
0.011374
0.015517
0.019781
0.024366
0.013503
0.028332
0.031693
0.035104
0.038551
0.042025
0.021897
0.015390
0.014637
0.020136
0.020305
0.012253
0.014136
0.016676
0.019621
0.022813
0.055184
0.051723
0.048563
0.055718
0.052623
0.049626
0.046743
0.043998
0.041419
0.039038
0.038866
0.039713
0.035160
0.030786
0.026428
0.022095
0.017804
0.013596
0.009580
0.006147
0.004781
0.006855
0.010498
0.014576
0.018810
0.023310
0.013868
0.028730
0.032049
0.035425
0.038843
0.042293
0.022150
0.015266
0.014624
0.020441
0.020858
0.011629
0.013307
0.015733
0.018617
0.021776
0.058613
0.045641
0.036443
0.017965
0.040388
0.039021
0.023606
0.025636
0.019861
0.011310
0.025260
0.023349
0.018103
0.011191
0.023908
0.024283
0.023837
0.023466
0.030753
0.031126
0.031465
0.031105
0.019885
0.016261
0.012759
0.009513
0.006895
0.005825
0.007048
0.009734
0.013007
0.016521
0.020151
0.023844
0.027574
0.019859
0.016166
0.012555
0.009125
0.006185
0.004752
0.006022
0.008904
0.012314
0.015917
0.019606
0.023341
0.027103
0.020411
0.016783
0.013269
0.009990
0.007272
0.005942
0.006862
0.009392
0.012596
0.016077
0.019688
0.023369
0.027092
0.020604
0.017077
0.013715
0.010672
0.008309
0.007317
0.008208
0.010514
0.013530
0.016880
0.020400
0.024015
0.027688
0.023273
0.024665
0.025140
0.023724
0.024857
0.024031
0.023945
0.023132
0.024427
0.023749
0.024000
0.023321
0.023362
0.024226
0.024595
0.023739
0.024754
0.023505
0.029549
0.022045
0.014930
0.011609
0.008715
0.018450
0.008695
0.025757
0.006819
0.022073
0.006810
0.011584
0.014903
0.018422
0.030027
0.022720
0.029342
0.021785
0.010919
0.014398
0.007778
0.018020
0.005579
0.021713
0.025447
0.007771
0.005575
0.010911
0.014389
0.018011
0.029635
0.022234
0.031085
0.031235
0.031032
0.031144
0.030953
0.022371
0.029387
0.014724
0.011429
0.008591
0.018229
0.006943
0.021844
0.006807
0.008911
0.025522
0.011831
0.015161
0.018684
0.022862
0.029636
0.029039
0.021986
0.014174
0.010715
0.007621
0.017786
0.007995
0.005539
0.005712
0.021473
0.025204
0.011160
0.014647
0.018272
0.029502
0.022615
0.029507
0.037663
0.027788
0.023193
0.026415
0.006034
0.031515
0.031802
0.036061
0.045530
0.018015
0.032561
0.027126
0.008587
0.040604
0.015259
0.022262
0.025964
0.034406
0.022721
0.033407
0.041272
0.012513
0.028934
0.008289
0.022177
0.006886
0.009145
0.019852
0.029636
0.034431
0.029545
0.032959
0.026388
0.025129
0.008728
0.019066
0.013400
0.050075
0.035429
0.012964
0.019736
0.045081
0.045135
0.029725
0.016830
0.039925
0.024458
0.033339
0.035067
0.034475
0.041336
0.005460
0.011183
0.035823
0.018410
0.019314
0.041225
0.028941
0.037247
0.044418
0.038097
0.014599
0.023100
0.026863
0.031443
0.021175
0.027762
0.015785
0.034641
0.048849
0.038056
0.027667
0.037961
0.020196
0.047970
0.004591
0.034558
0.010829
0.016660
0.010178
0.025159
0.028787
0.021617
0.009969
0.030816
0.025334
0.014008
0.031698
0.022936
0.024553
0.013883
0.023937
0.010170
0.031572
0.023178
0.042125
0.027113
0.025018
0.033985
0.012690
0.031975
0.019768
0.023166
0.008250
0.029810
0.032202
0.030567
0.006803
0.028260
0.043115
0.021642
0.031457
0.026662
0.039525
0.010182
0.006652
0.038211
0.052174
0.036400
0.033919
0.036323
0.020076
0.030313
0.038211
0.028790
0.024018
0.026957
0.005857
0.032369
0.032507
0.036815
0.046159
0.018869
0.033485
0.028013
0.007740
0.041008
0.014271
0.023192
0.026699
0.034941
0.023389
0.034092
0.041944
0.013297
0.029508
0.007717
0.022550
0.007614
0.009393
0.020027
0.030631
0.035188
0.030261
0.033637
0.027376
0.025675
0.008592
0.019828
0.013276
0.050645
0.036460
0.012037
0.018685
0.045731
0.045559
0.030558
0.016810
0.040649
0.025331
0.034217
0.035657
0.035549
0.041936
0.004838
0.010225
0.036576
0.017378
0.020260
0.041581
0.029815
0.037630
0.044746
0.038750
0.015507
0.023700
0.027374
0.031894
0.021953
0.028447
0.016592
0.035245
0.049497
0.038584
0.028445
0.038824
0.020873
0.048520
0.004933
0.035487
0.010086
0.015669
0.011066
0.025815
0.029410
0.020595
0.010566
0.031740
0.026164
0.013033
0.032429
0.023927
0.025146
0.014524
0.024685
0.010256
0.032170
0.022120
0.042677
0.027675
0.025974
0.034397
0.012503
0.032761
0.019875
0.023571
0.007352
0.030787
0.033199
0.031267
0.007138
0.029282
0.043815
0.022394
0.032486
0.027572
0.040164
0.009732
0.006071
0.038986
0.052757
0.037391
0.034645
0.037359
0.020972
0.033514
0.040636
0.029824
0.036984
0.043401
0.027385
0.027195
0.043472
0.022846
0.020901
0.020837
0.014160
0.017412
0.017391
0.015276
0.013010
0.012949
0.015562
0.015759
0.012135
0.012191
0.013671
0.020646
0.019457
0.021501
0.019587
0.021707
0.021545
0.012605
0.017644
0.020981
0.014878
0.011467
0.023321
0.023790
0.011601
0.032336
0.028070
0.023736
0.019423
0.015171
0.011052
0.007293
0.004826
0.005698
0.008984
0.012963
0.017033
0.020568
0.036047
0.036830
0.021925
0.053101
0.049993
0.047360
0.056227
0.054058
0.047804
0.039619
0.044907
0.050822
0.042240
0.037945
0.056618
0.056593
0.037541
0.038161
0.039503
0.037697
0.038965
0.038798
0.039182
0.039509
0.039868
0.039217
0.010015
0.031471
0.031176
0.028726
0.033682
0.030489
0.030303
0.029986
0.026614
0.029008
0.027738
0.029364
0.029026
0.034395
0.034143
0.032153
0.031919
0.032909
0.032045
0.033988
0.032583
0.024310
0.028220
0.037947
0.036714
0.025226
0.026348
0.012733
0.021526
0.021218
0.024094
0.023773
0.034165
0.034747
0.034397
0.026711
0.026380
0.039908
0.039099
0.014800
0.040612
0.040064
0.038321
0.036103
0.038075
0.036924
0.037464
0.037110
0.033812
0.033799
0.031700
0.022784
0.022508
0.024064
0.026198
0.030008
0.029794
0.027981
0.027098
0.035264
0.037739
0.034978
0.037443
0.032843
0.032570
0.036449
0.037989
0.024933
0.027431
0.009788
0.031949
0.031759
0.011003
0.035873
0.034017
0.025126
0.036597
0.036556
0.025346
0.019027
0.018737
0.042247
0.044568
0.046193
0.044693
0.030231
0.040353
0.039837
0.033433
0.033761
0.011303
0.033847
0.035734
0.036217
0.023889
0.025317
0.035168
0.022414
0.019895
0.017466
0.017081
0.038398
0.053684
0.051683
0.032968
0.031513
0.030120
0.015171
0.033513
0.032454
0.031102
0.013078
0.032715
0.033090
0.033088
0.033272
0.032902
0.032778
0.032714
0.031320
0.032904
0.034284
0.035666
0.033152
0.032104
0.032138
0.034653
0.036037
0.037422
0.035868
0.036260
0.036222
0.034479
0.034885
0.034838
0.034469
0.033812
0.033693
0.033332
0.033456
0.033278
0.032824
0.033250
0.032630
0.032279
0.029927
0.023427
