# vtk DataFile Version 2.0
Unstructured Grid Example
ASCII
DATASET UNSTRUCTURED_GRID
POINTS 276 float
0.000000 0.629875 -0.000000 
0.000000 0.000003 2.094415 
-0.629878 -0.000000 0.000000 
-0.000001 -0.629870 0.000000 
0.629876 0.000000 -0.000000 
-0.000000 0.624752 0.200885 
0.000000 0.628585 0.373988 
0.000000 0.483545 0.507307 
-0.000001 0.378040 0.659657 
0.000031 0.259276 0.802074 
0.000715 0.209592 0.997812 
0.000668 0.276714 1.138045 
-0.003958 0.406743 1.249770 
0.000494 0.289997 1.358352 
-0.000116 0.392356 1.531644 
0.000068 0.415652 1.730186 
-0.000005 0.342324 1.915887 
-0.000016 0.194892 2.051275 
-0.624751 -0.000000 0.200884 
-0.628584 -0.000001 0.373986 
-0.483547 -0.000001 0.507307 
-0.378037 0.000002 0.659662 
-0.259307 -0.000020 0.802007 
-0.209247 -0.000519 0.996593 
-0.276412 0.000286 1.140828 
-0.415235 -0.008255 1.229041 
-0.287766 0.002859 1.362979 
-0.392684 -0.000448 1.530905 
-0.415579 0.000036 1.730340 
-0.342331 -0.000049 1.915844 
-0.194924 0.000006 2.051274 
-0.000000 -0.624754 0.200885 
-0.000000 -0.628586 0.373987 
-0.000001 -0.483547 0.507311 
0.000000 -0.378042 0.659654 
0.000005 -0.259305 0.802024 
-0.000631 -0.210218 0.995961 
0.001755 -0.279554 1.135493 
-0.002609 -0.396702 1.274549 
0.002876 -0.293196 1.357446 
-0.000130 -0.391498 1.532564 
-0.000039 -0.415780 1.729974 
-0.000016 -0.342289 1.916029 
-0.000016 -0.194921 2.051130 
0.624751 -0.000000 0.200884 
0.628585 -0.000000 0.373987 
0.483546 0.000000 0.507311 
0.378042 -0.000003 0.659650 
0.259287 -0.000005 0.802052 
0.210147 0.000203 0.997118 
0.274853 -0.002232 1.134603 
0.414678 -0.003145 1.241288 
0.289020 0.001251 1.356129 
0.392671 -0.000339 1.531211 
0.415488 0.000121 1.730507 
0.342304 -0.000022 1.915877 
0.194878 0.000011 2.051335 
-0.241043 0.581929 0.000000 
-0.445389 0.445389 -0.000000 
-0.581928 0.241043 -0.000000 
-0.581926 -0.241044 -0.000001 
-0.445390 -0.445388 0.000002 
-0.241043 -0.581929 0.000000 
0.241042 -0.581933 0.000000 
0.445390 -0.445388 -0.000002 
0.581928 -0.241043 0.000001 
0.581928 0.241043 -0.000000 
0.445389 0.445389 0.000000 
0.241043 0.581928 -0.000000 
-0.314708 0.227915 1.182026 
-0.138543 0.394700 1.671778 
-0.188643 0.348393 1.199437 
-0.324669 0.265372 1.286976 
-0.194968 0.214592 0.718666 
-0.324612 0.516928 0.260736 
-0.114003 0.089759 2.072962 
-0.298220 0.273583 1.217735 
-0.135775 0.080095 2.068389 
-0.542485 0.241557 0.429904 
-0.105618 0.125448 2.065897 
-0.564869 0.174332 0.230990 
-0.245960 0.321975 0.559144 
-0.235185 0.202871 1.389910 
-0.340732 0.514712 0.205777 
-0.185977 0.560364 0.226867 
-0.187936 0.248162 1.290599 
-0.282174 0.294210 1.244545 
-0.240926 0.153304 1.982556 
-0.122932 0.301848 0.686723 
-0.312185 0.214266 0.657114 
-0.462136 0.367978 0.224114 
-0.454646 0.438818 0.340228 
-0.165113 0.383741 1.250673 
-0.095554 0.386329 1.808628 
-0.358012 0.145655 1.838090 
-0.375654 0.183709 1.665215 
-0.171075 0.171008 1.131790 
-0.155148 0.157760 0.933453 
-0.466361 0.392303 0.413067 
-0.271107 0.312022 1.614879 
-0.377368 0.150232 1.237329 
-0.235968 0.583146 0.317897 
-0.366528 0.505940 0.386074 
-0.141931 0.353184 1.502304 
-0.211471 0.326277 1.832657 
-0.172700 0.570270 0.427981 
-0.559684 0.289006 0.322341 
-0.619450 0.108255 0.185166 
-0.229183 -0.300871 1.197337 
-0.394689 -0.138522 1.672081 
-0.287457 -0.135850 1.269341 
-0.704875 -0.447327 0.786682 
-0.214582 -0.194983 0.718621 
-0.516931 -0.324601 0.260765 
-0.089663 -0.113951 2.073033 
-0.286280 -0.379357 1.263970 
-0.080036 -0.135751 2.068411 
-0.241564 -0.542483 0.429903 
-0.125355 -0.105568 2.065978 
-0.174331 -0.564868 0.230989 
-0.321976 -0.245962 0.559144 
-0.205551 -0.238606 1.385388 
-0.514711 -0.340735 0.205768 
-0.560368 -0.185972 0.226874 
-0.284245 -0.228285 1.244752 
-0.055419 -0.054676 1.522879 
-0.153311 -0.240945 1.982529 
-0.301842 -0.122917 0.686748 
-0.214265 -0.312191 0.657111 
-0.367978 -0.462136 0.224113 
-0.438824 -0.454644 0.340226 
-0.309928 -0.124842 1.351350 
-0.386334 -0.095526 1.808563 
-0.145782 -0.357894 1.838327 
-0.183318 -0.375448 1.665553 
-0.183241 -0.178757 1.120818 
-0.157619 -0.154667 0.934303 
-0.392299 -0.466362 0.413066 
-0.311777 -0.270684 1.615533 
-0.181677 -0.403007 1.185028 
-0.583126 -0.236018 0.317822 
-0.505934 -0.366533 0.386063 
-0.353172 -0.141683 1.502230 
-0.326335 -0.211512 1.832653 
-0.570271 -0.172692 0.427989 
-0.288991 -0.559696 0.322346 
-0.108255 -0.619453 0.185166 
0.031962 0.010472 0.000001 
-0.061910 0.311151 0.000000 
-0.304409 -0.057594 0.000000 
0.059835 -0.306657 -0.000001 
0.276325 0.052902 0.000000 
0.206982 0.318147 0.000000 
-0.216120 -0.316731 -0.000000 
-0.316731 0.216120 -0.000000 
0.316731 -0.216120 0.000000 
0.399979 0.234665 0.000000 
0.454759 -0.066017 -0.000000 
0.063598 0.459591 0.000000 
-0.459908 0.064719 0.000001 
0.234863 -0.399855 -0.000002 
-0.400960 -0.235238 0.000002 
-0.235238 0.400960 0.000000 
-0.064718 -0.459907 -0.000001 
-0.097697 -0.121964 0.000000 
-0.125239 0.102569 0.000001 
0.067483 0.169590 0.000000 
0.118843 -0.124563 0.000000 
0.094951 -0.477357 0.000002 
0.477356 0.094952 -0.000000 
-0.477355 -0.094953 -0.000002 
-0.094952 0.477356 0.000000 
0.329545 -0.229299 1.168926 
0.138412 -0.394804 1.672271 
0.254311 -0.391285 1.139034 
0.065151 0.053565 1.694040 
0.194992 -0.214566 0.718636 
0.324625 -0.516920 0.260700 
0.113975 -0.089776 2.073009 
0.183827 -0.295209 1.200067 
0.135761 -0.080102 2.068445 
0.542483 -0.241561 0.429901 
0.105585 -0.125444 2.065897 
0.564869 -0.174332 0.230989 
0.245960 -0.321974 0.559147 
0.233457 -0.202547 1.393373 
0.340730 -0.514714 0.205789 
0.185981 -0.560360 0.226862 
0.145316 -0.214654 1.333918 
0.539330 -0.491650 0.981339 
0.240943 -0.153285 1.982507 
0.122918 -0.301854 0.686737 
0.312190 -0.214268 0.657110 
0.462135 -0.367978 0.224114 
0.454641 -0.438818 0.340244 
0.231562 -0.447315 1.149316 
0.095600 -0.386143 1.808654 
0.357974 -0.145677 1.838352 
0.375879 -0.183699 1.664540 
0.172213 -0.168249 1.136826 
0.154692 -0.157870 0.933535 
0.466363 -0.392302 0.413061 
0.271620 -0.311994 1.614275 
0.349600 -0.124075 1.287842 
0.235912 -0.583176 0.317975 
0.366523 -0.505940 0.386081 
0.141737 -0.352887 1.501273 
0.211332 -0.326263 1.832912 
0.172708 -0.570266 0.427970 
0.559689 -0.288994 0.322353 
0.619451 -0.108255 0.185166 
0.230390 0.313436 1.184036 
0.394703 0.138650 1.671877 
0.347839 0.194488 1.200761 
0.291479 0.298006 1.259316 
0.214578 0.195003 0.718650 
0.516926 0.324610 0.260735 
0.089784 0.114014 2.072917 
0.276088 0.281858 1.219740 
0.080130 0.135785 2.068365 
0.241565 0.542486 0.429903 
0.125445 0.105631 2.065854 
0.174332 0.564868 0.230989 
0.321977 0.245962 0.559145 
0.203718 0.234719 1.390467 
0.514713 0.340733 0.205776 
0.560365 0.185977 0.226868 
0.247602 0.190230 1.294098 
0.287020 0.286004 1.245234 
0.153309 0.240996 1.982603 
0.301849 0.122915 0.686738 
0.214257 0.312185 0.657096 
0.367978 0.462136 0.224113 
0.438820 0.454646 0.340222 
0.371421 0.173213 1.260016 
0.386361 0.095427 1.808434 
0.145731 0.357983 1.838167 
0.183628 0.375718 1.665086 
0.170568 0.172387 1.133118 
0.157487 0.154672 0.933308 
0.392302 0.466363 0.413062 
0.311928 0.271235 1.614720 
0.149122 0.379002 1.234857 
0.583145 0.235973 0.317887 
0.505939 0.366529 0.386068 
0.352941 0.141755 1.502386 
0.326249 0.211462 1.832743 
0.570271 0.172699 0.427978 
0.288990 0.559693 0.322343 
0.108256 0.619458 0.185068 
-0.073689 -0.077719 1.321257 
-0.070602 -0.076229 1.501036 
-0.070921 -0.076828 1.678629 
-0.026377 -0.031976 1.902149 
-0.026372 -0.031819 1.813202 
-0.026351 0.057265 1.812893 
-0.026641 0.057336 1.723651 
-0.115677 0.146503 1.723751 
-0.115604 0.057371 1.723754 
-0.070994 0.280434 0.250994 
-0.249502 0.101925 0.250994 
-0.093838 -0.100192 1.298688 
-0.070994 -0.255090 0.250995 
-0.249502 -0.076584 0.250993 
0.161253 -0.129244 1.267267 
0.062990 -0.031975 1.812743 
0.107514 -0.255091 0.250995 
0.286023 -0.076582 0.250995 
0.062908 0.057335 1.812973 
0.107515 0.280433 0.250993 
0.286023 0.101925 0.250994 
0.107515 0.101926 0.250994 
0.107515 -0.076584 0.250991 
-0.070993 -0.076584 0.250993 
-0.070993 0.101925 0.250993 
-0.070995 0.101928 0.429513 
CELLS 798 3990
4  51 227 50 52 
4  252 134 41 133 
4  196 42 207 265 
4  201 46 193 267 
4  51 227 234 213 
4  134 251 138 252 
4  188 189 175 179 
4  260 19 18 263 
4  9 275 22 73 
4  226 270 247 243 
4  262 153 119 129 
4  193 266 194 201 
4  51 227 52 234 
4  76 86 85 72 
4  16 268 257 236 
4  15 236 256 237 
4  257 15 256 237 
4  222 68 232 152 
4  232 270 269 152 
4  10 97 239 136 
4  105 259 7 81 
4  257 236 256 15 
4  244 270 233 216 
4  125 121 124 111 
4  224 227 250 13 
4  123 170 18 263 
4  246 268 212 235 
4  253 79 1 17 
4  109 252 258 132 
4  201 46 184 181 
4  6 259 269 7 
4  163 3 31 146 
4  227 228 214 218 
4  236 268 237 246 
4  107 159 80 18 
4  159 260 80 18 
4  123 161 170 263 
4  161 149 263 153 
4  151 157 267 155 
4  168 266 31 187 
4  51 227 213 50 
4  66 225 67 156 
4  0 84 171 5 
4  9 275 215 48 
4  263 120 141 130 
4  257 103 13 82 
4  99 103 257 82 
4  121 261 250 39 
4  150 266 160 155 
4  253 17 1 219 
4  253 180 56 1 
4  163 266 31 168 
4  123 60 161 122 
4  163 262 31 266 
4  155 157 183 65 
4  158 152 269 148 
4  66 226 169 4 
4  64 186 160 63 
4  1 30 77 253 
4  69 24 26 100 
4  123 113 122 263 
4  159 154 59 80 
4  248 220 269 240 
4  268 241 212 245 
4  9 239 48 215 
4  152 270 269 271 
4  76 85 96 71 
4  266 150 160 168 
4  259 158 269 148 
4  76 69 96 85 
4  165 260 263 274 
4  273 262 128 120 
4  263 113 129 130 
4  241 268 256 245 
4  188 38 195 39 
4  262 32 33 119 
4  270 244 233 240 
4  222 152 269 158 
4  34 262 33 128 
4  135 110 115 124 
4  154 260 259 90 
4  44 157 169 4 
4  159 170 18 2 
4  270 156 226 169 
4  250 24 261 26 
4  275 273 112 120 
4  11 250 96 10 
4  270 232 269 240 
4  251 224 245 52 
4  159 260 263 149 
4  185 264 188 39 
4  253 79 17 255 
4  250 185 251 39 
4  250 185 264 52 
4  17 268 253 255 
4  264 188 37 199 
4  44 157 183 267 
4  268 255 17 16 
4  218 227 211 238 
4  250 251 82 26 
4  101 84 6 105 
4  242 12 11 13 
4  220 248 222 6 
4  188 174 37 199 
4  223 270 269 240 
4  184 46 201 267 
4  170 159 263 149 
4  161 263 122 129 
4  55 197 190 265 
4  188 174 175 195 
4  125 124 115 111 
4  268 255 257 256 
4  270 223 269 271 
4  250 227 52 264 
4  223 275 269 271 
4  151 166 147 271 
4  270 232 233 216 
4  161 123 122 263 
4  47 176 272 192 
4  208 266 205 177 
4  57 0 5 84 
4  272 266 267 184 
4  63 186 160 187 
4  270 45 226 247 
4  147 166 274 271 
4  208 266 204 187 
4  151 270 156 152 
4  255 253 254 268 
4  266 168 160 187 
4  87 16 257 104 
4  257 87 104 94 
4  184 272 192 267 
4  135 110 124 24 
4  270 157 44 267 
4  37 250 36 261 
4  85 11 96 71 
4  113 263 141 130 
4  188 38 174 195 
4  108 261 124 139 
4  37 36 250 199 
4  170 159 18 263 
4  16 257 93 15 
4  166 259 269 148 
4  66 156 169 226 
4  260 154 259 165 
4  45 226 247 243 
4  251 27 82 26 
4  224 241 256 245 
4  224 251 256 13 
4  251 95 258 257 
4  249 68 158 0 
4  109 132 258 28 
4  32 117 119 145 
4  257 16 236 15 
4  153 262 164 263 
4  120 275 263 127 
4  60 123 170 2 
4  275 260 259 274 
4  271 223 47 270 
4  166 152 269 271 
4  168 3 63 187 
4  266 150 167 155 
4  275 272 271 230 
4  114 253 118 1 
4  66 44 226 4 
4  206 252 185 251 
4  21 120 263 127 
4  42 252 41 133 
4  97 9 239 136 
4  110 135 115 108 
4  108 261 139 37 
4  139 125 124 108 
4  189 172 188 203 
4  255 268 254 256 
4  124 110 115 111 
4  77 75 253 79 
4  25 124 24 26 
4  25 124 26 131 
4  19 123 18 263 
4  275 21 263 127 
4  36 135 37 261 
4  150 262 167 164 
4  192 46 184 267 
4  253 178 180 1 
4  251 121 138 142 
4  81 90 259 260 
4  107 159 59 80 
4  32 208 204 187 
4  275 112 22 127 
4  74 259 91 90 
4  81 275 20 260 
4  135 23 24 261 
4  10 23 250 96 
4  202 173 252 206 
4  21 275 22 127 
4  50 264 203 52 
4  35 22 136 48 
4  227 214 234 213 
4  12 85 71 11 
4  58 83 162 57 
4  166 259 271 269 
4  9 22 48 136 
4  81 90 260 98 
4  260 165 259 274 
4  259 275 271 269 
4  251 224 250 13 
4  273 275 191 272 
4  155 157 267 183 
4  47 275 272 176 
4  266 262 191 272 
4  262 273 191 272 
4  251 185 206 39 
4  49 36 200 199 
4  260 19 20 80 
4  196 42 265 252 
4  34 266 191 184 
4  123 60 18 2 
4  275 176 191 272 
4  266 34 33 184 
4  266 193 267 201 
4  252 53 265 185 
4  163 262 153 119 
4  225 232 156 270 
4  239 200 136 48 
4  252 254 256 258 
4  266 205 201 184 
4  270 244 247 216 
4  126 252 133 143 
4  6 259 5 269 
4  17 253 268 219 
4  251 257 258 256 
4  270 225 226 156 
4  168 63 160 187 
4  154 259 148 162 
4  154 165 148 259 
4  251 224 256 245 
4  262 117 145 119 
4  83 74 90 259 
4  132 254 258 29 
4  16 79 87 255 
4  151 147 272 271 
4  81 101 74 102 
4  273 165 263 274 
4  34 273 262 128 
4  165 260 149 263 
4  275 273 263 274 
4  109 27 258 252 
4  144 19 263 123 
4  42 253 126 118 
4  193 186 160 64 
4  262 273 164 263 
4  47 46 192 267 
4  165 273 263 164 
4  144 120 141 263 
4  94 95 258 28 
4  29 255 253 254 
4  275 223 230 271 
4  34 262 266 33 
4  132 254 29 143 
4  32 262 33 266 
4  272 191 192 176 
4  272 47 192 267 
4  69 76 86 85 
4  262 119 145 129 
4  22 275 89 73 
4  126 253 42 254 
4  200 35 136 48 
4  266 191 184 272 
4  275 22 35 48 
4  126 253 143 118 
4  153 262 263 129 
4  193 155 183 65 
4  11 250 238 13 
4  201 266 184 267 
4  6 220 269 222 
4  223 244 247 270 
4  27 109 258 28 
4  208 266 184 205 
4  252 53 185 251 
4  83 58 162 90 
4  225 66 226 156 
4  270 216 247 243 
4  225 270 226 216 
4  33 32 117 119 
4  264 172 188 199 
4  262 120 137 117 
4  264 172 199 50 
4  259 166 271 274 
4  193 186 177 266 
4  95 99 257 82 
4  222 232 269 152 
4  211 11 13 242 
4  264 172 50 203 
4  193 266 155 160 
4  262 266 167 272 
4  151 147 167 272 
4  193 186 266 160 
4  263 129 137 130 
4  193 64 160 155 
4  16 79 255 17 
4  266 155 167 267 
4  272 266 167 267 
4  238 218 213 211 
4  60 161 122 61 
4  262 32 119 31 
4  155 151 167 267 
4  159 107 59 2 
4  147 273 167 272 
4  149 153 164 263 
4  275 47 230 176 
4  123 60 170 161 
4  253 219 221 268 
4  275 259 271 274 
4  253 221 219 217 
4  117 145 137 129 
4  129 145 137 130 
4  151 272 167 267 
4  40 134 41 252 
4  141 120 137 130 
4  9 97 22 136 
4  163 146 31 119 
4  81 90 91 259 
4  262 163 31 119 
4  275 112 127 120 
4  222 6 5 269 
4  12 85 13 92 
4  251 27 252 258 
4  81 101 102 105 
4  62 163 153 119 
4  232 270 233 240 
4  275 8 7 81 
4  163 62 146 119 
4  158 259 171 148 
4  198 53 265 54 
4  222 249 68 158 
4  55 197 265 54 
4  202 198 265 207 
4  158 222 5 269 
4  251 95 82 27 
4  152 166 269 148 
4  249 0 158 5 
4  47 270 46 267 
4  44 45 267 183 
4  259 83 162 90 
4  84 259 6 105 
4  3 163 62 146 
4  272 192 191 184 
4  98 102 81 91 
4  163 150 153 262 
4  10 23 96 97 
4  45 270 226 44 
4  216 244 247 243 
4  266 32 31 187 
4  272 47 271 230 
4  143 253 126 254 
4  143 253 29 118 
4  228 227 211 218 
4  259 158 5 269 
4  84 259 5 6 
4  81 101 259 74 
4  87 255 257 16 
4  222 248 269 232 
4  29 253 143 254 
4  275 88 89 73 
4  268 265 254 256 
4  206 185 252 202 
4  245 251 53 256 
4  257 14 15 237 
4  266 208 204 177 
4  193 266 267 155 
4  225 232 270 216 
4  204 208 205 177 
4  3 31 63 187 
4  252 53 256 265 
4  138 143 252 109 
4  135 23 36 136 
4  194 266 205 201 
4  188 38 39 37 
4  231 275 9 8 
4  265 252 254 256 
4  266 208 33 187 
4  32 266 33 187 
4  95 257 104 94 
4  95 99 104 257 
4  149 165 263 164 
4  101 74 84 259 
4  154 260 80 159 
4  61 161 122 129 
4  208 32 33 187 
4  162 57 84 171 
4  147 273 272 271 
4  3 168 31 187 
4  45 46 183 181 
4  81 101 105 259 
4  78 90 80 106 
4  45 270 46 247 
4  74 81 102 91 
4  85 250 26 96 
4  275 259 7 269 
4  135 124 115 108 
4  81 20 275 89 
4  249 222 5 158 
4  81 90 98 91 
4  224 13 228 227 
4  12 85 11 13 
4  180 42 265 190 
4  42 207 265 190 
4  10 23 136 49 
4  228 13 211 227 
4  121 251 250 26 
4  49 238 199 50 
4  110 124 131 111 
4  108 261 37 135 
4  268 241 237 246 
4  227 264 50 52 
4  42 253 265 254 
4  186 266 187 177 
4  180 42 182 43 
4  262 120 263 137 
4  268 55 54 235 
4  70 257 15 93 
4  225 232 67 156 
4  42 196 41 252 
4  78 106 98 90 
4  182 42 180 190 
4  211 13 228 242 
4  161 153 263 129 
4  176 275 35 48 
4  53 268 256 265 
4  257 16 93 104 
4  170 123 18 2 
4  19 123 144 140 
4  211 13 238 227 
4  74 81 91 259 
4  194 266 177 205 
4  22 89 275 21 
4  266 204 187 177 
4  207 197 265 190 
4  29 87 258 94 
4  157 270 44 169 
4  85 11 250 96 
4  23 97 136 22 
4  251 95 27 258 
4  85 250 11 13 
4  221 55 56 268 
4  273 165 147 164 
4  153 161 61 129 
4  120 263 137 130 
4  108 261 135 124 
4  259 105 7 6 
4  251 250 82 13 
4  14 103 13 257 
4  159 260 18 263 
4  221 55 219 229 
4  74 83 84 259 
4  117 262 145 129 
4  112 22 136 35 
4  216 270 226 243 
4  253 268 221 56 
4  251 257 256 13 
4  251 257 13 82 
4  254 255 256 258 
4  252 42 265 254 
4  176 191 35 112 
4  142 138 252 109 
4  193 64 155 65 
4  85 86 82 72 
4  29 255 258 87 
4  188 38 37 174 
4  264 172 203 188 
4  227 264 250 238 
4  250 37 199 264 
4  142 251 252 138 
4  142 27 109 252 
4  231 9 275 215 
4  176 47 230 48 
4  275 223 8 231 
4  268 54 212 235 
4  251 27 142 252 
4  196 173 265 207 
4  144 263 19 20 
4  8 223 7 231 
4  12 85 92 71 
4  165 166 259 274 
4  238 227 50 213 
4  166 165 147 274 
4  165 273 147 274 
4  250 24 26 96 
4  29 94 258 28 
4  83 259 162 84 
4  70 257 93 104 
4  57 83 162 84 
4  253 265 56 180 
4  226 44 169 4 
4  132 29 258 28 
4  275 223 7 8 
4  166 270 152 271 
4  55 265 190 56 
4  270 151 267 271 
4  260 154 80 90 
4  232 248 269 240 
4  250 24 96 23 
4  220 223 7 269 
4  69 26 24 96 
4  268 253 254 265 
4  151 272 267 271 
4  219 55 221 268 
4  126 252 143 254 
4  87 77 30 253 
4  265 180 190 56 
4  200 36 136 35 
4  262 128 120 33 
4  241 268 212 246 
4  1 43 116 253 
4  150 163 168 266 
4  150 163 266 262 
4  275 230 231 215 
4  44 270 226 169 
4  53 268 265 54 
4  259 162 171 148 
4  270 45 267 44 
4  223 47 270 46 
4  34 191 112 35 
4  162 259 171 84 
4  1 43 178 182 
4  275 112 35 22 
4  275 176 35 112 
4  262 120 117 33 
4  114 253 116 118 
4  49 36 136 200 
4  1 30 253 118 
4  103 70 99 257 
4  251 121 40 134 
4  259 158 171 5 
4  271 47 223 230 
4  262 33 117 119 
4  196 173 41 252 
4  275 9 22 48 
4  200 176 35 48 
4  85 250 82 26 
4  178 43 1 253 
4  87 257 258 94 
4  53 268 54 212 
4  251 185 52 53 
4  268 53 256 245 
4  51 50 203 52 
4  219 55 17 229 
4  150 262 164 153 
4  264 227 50 238 
4  248 232 233 240 
4  227 238 250 13 
4  151 166 270 152 
4  273 147 274 271 
4  176 47 48 192 
4  200 49 48 239 
4  211 13 11 238 
4  3 163 31 168 
4  270 47 271 267 
4  261 121 250 26 
4  124 121 261 26 
4  261 124 26 24 
4  268 53 245 212 
4  45 270 267 46 
4  120 144 20 263 
4  68 232 152 67 
4  223 244 270 240 
4  270 232 156 152 
4  232 156 152 67 
4  262 117 137 129 
4  23 135 36 261 
4  228 227 214 224 
4  250 37 264 39 
4  238 264 199 50 
4  178 43 180 182 
4  250 24 23 261 
4  180 43 178 253 
4  139 261 39 37 
4  38 139 39 37 
4  17 55 219 268 
4  42 253 180 265 
4  42 180 253 43 
4  84 259 171 5 
4  116 118 43 126 
4  275 48 230 215 
4  275 176 230 48 
4  250 52 227 224 
4  17 55 16 229 
4  268 54 55 265 
4  34 262 191 266 
4  34 273 191 262 
4  34 273 275 191 
4  224 251 250 52 
4  16 55 17 268 
4  62 153 61 129 
4  47 272 271 267 
4  273 128 112 120 
4  250 185 39 264 
4  193 266 177 194 
4  45 183 209 181 
4  173 40 41 252 
4  19 78 20 80 
4  262 150 167 266 
4  241 224 256 237 
4  157 44 183 210 
4  113 144 141 263 
4  144 113 141 140 
4  44 157 4 210 
4  197 198 265 54 
4  126 252 254 42 
4  43 118 116 253 
4  183 157 210 65 
4  157 4 210 65 
4  185 198 53 265 
4  85 92 71 72 
4  270 151 156 169 
4  154 259 162 90 
4  128 112 120 127 
4  43 118 42 126 
4  165 166 148 259 
4  29 255 254 258 
4  9 97 73 22 
4  158 0 171 5 
4  157 151 270 169 
4  124 125 115 108 
4  275 176 112 191 
4  273 34 112 128 
4  34 273 112 275 
4  221 253 56 1 
4  207 198 265 197 
4  16 55 236 229 
4  128 34 112 35 
4  34 275 112 191 
4  19 106 78 80 
4  268 241 256 237 
4  42 118 43 253 
4  170 161 149 263 
4  107 159 18 2 
4  19 260 18 80 
4  172 189 188 179 
4  189 185 188 175 
4  58 154 162 90 
4  181 193 183 209 
4  14 224 256 13 
4  40 173 206 252 
4  186 266 160 187 
4  32 262 266 31 
4  80 154 59 90 
4  154 58 59 90 
4  223 270 247 46 
4  99 70 104 257 
4  174 188 175 179 
4  251 121 142 26 
4  79 253 87 255 
4  79 87 253 77 
4  143 118 29 126 
4  55 268 265 56 
4  236 55 16 268 
4  275 273 274 271 
4  252 53 251 256 
4  275 47 272 230 
4  217 253 221 1 
4  253 75 1 79 
4  25 100 26 24 
4  236 55 246 229 
4  262 273 263 120 
4  246 55 236 268 
4  260 275 263 274 
4  25 124 131 110 
4  135 124 261 24 
4  25 124 110 24 
4  80 20 90 78 
4  275 260 81 259 
4  76 85 71 72 
4  268 253 265 56 
4  9 275 88 8 
4  27 95 28 258 
4  30 118 29 253 
4  257 95 258 94 
4  29 255 87 253 
4  208 266 33 184 
4  70 14 15 257 
4  255 268 257 16 
4  69 26 96 85 
4  90 20 80 260 
4  69 26 86 100 
4  185 202 265 252 
4  263 113 122 129 
4  255 257 256 258 
4  90 20 98 78 
4  193 155 267 183 
4  252 251 258 256 
4  98 20 90 260 
4  157 151 267 270 
4  255 87 257 258 
4  185 265 202 198 
4  126 252 42 133 
4  86 26 69 85 
4  202 173 265 252 
4  217 253 1 219 
4  132 254 143 252 
4  143 134 138 252 
4  87 253 30 29 
4  114 253 1 116 
4  222 68 152 158 
4  251 95 257 82 
4  257 14 256 13 
4  262 273 167 164 
4  275 273 120 263 
4  45 46 267 183 
4  273 275 272 271 
4  275 260 263 20 
4  227 218 214 213 
4  218 227 238 213 
4  273 262 167 272 
4  224 14 256 237 
4  220 223 269 240 
4  200 49 239 136 
4  275 7 223 269 
4  239 9 48 136 
4  77 75 1 253 
4  173 202 265 207 
4  173 196 265 252 
4  40 251 206 39 
4  251 27 26 142 
4  69 76 96 71 
4  14 257 256 237 
4  98 20 81 78 
4  188 172 179 199 
4  10 9 239 97 
4  174 188 179 199 
4  6 269 220 7 
4  21 275 20 89 
4  172 174 179 199 
4  166 151 270 271 
4  259 275 7 81 
4  238 264 250 199 
4  273 147 167 164 
4  10 49 239 238 
4  250 85 82 13 
4  275 9 88 73 
4  238 49 199 250 
4  23 10 250 49 
4  275 231 230 223 
4  121 251 40 39 
4  101 259 84 105 
4  188 264 37 39 
4  250 185 52 251 
4  70 103 14 257 
4  251 134 40 252 
4  143 134 252 133 
4  245 53 251 52 
4  220 248 269 222 
4  82 26 86 85 
4  57 0 84 171 
4  251 121 250 39 
4  121 251 138 134 
4  81 20 98 260 
4  153 62 119 129 
4  49 36 199 250 
4  23 36 250 261 
4  36 23 250 49 
4  275 8 81 88 
4  260 19 263 20 
4  144 123 263 140 
4  113 144 263 140 
4  23 36 136 49 
4  23 10 136 97 
4  123 113 263 140 
4  49 10 239 136 
4  49 10 250 238 
4  11 250 10 238 
4  120 21 263 20 
4  251 40 206 252 
4  250 37 39 261 
4  262 263 129 137 
4  21 275 263 20 
4  154 260 149 165 
4  260 154 149 159 
4  275 89 88 81 
4  193 194 209 201 
4  183 46 193 181 
4  106 90 91 98 
4  236 268 256 237 
4  193 46 183 267 
4  181 193 209 201 
4  55 268 246 235 
4  193 46 201 181 
4  257 268 256 236 
4  132 254 252 258 
4  143 109 132 252 
4  125 121 39 124 
4  139 125 39 124 
4  121 261 39 124 
4  261 139 39 124 
4  189 185 52 188 
4  52 264 203 188 
4  185 264 52 188 
4  52 189 188 203 
CELL_TYPES 798
10
10
10
10
10
10
10
10
10
10
10
10
10
10
10
10
10
10
10
10
10
10
10
10
10
10
10
10
10
10
10
10
10
10
10
10
10
10
10
10
10
10
10
10
10
10
10
10
10
10
10
10
10
10
10
10
10
10
10
10
10
10
10
10
10
10
10
10
10
10
10
10
10
10
10
10
10
10
10
10
10
10
10
10
10
10
10
10
10
10
10
10
10
10
10
10
10
10
10
10
10
10
10
10
10
10
10
10
10
10
10
10
10
10
10
10
10
10
10
10
10
10
10
10
10
10
10
10
10
10
10
10
10
10
10
10
10
10
10
10
10
10
10
10
10
10
10
10
10
10
10
10
10
10
10
10
10
10
10
10
10
10
10
10
10
10
10
10
10
10
10
10
10
10
10
10
10
10
10
10
10
10
10
10
10
10
10
10
10
10
10
10
10
10
10
10
10
10
10
10
10
10
10
10
10
10
10
10
10
10
10
10
10
10
10
10
10
10
10
10
10
10
10
10
10
10
10
10
10
10
10
10
10
10
10
10
10
10
10
10
10
10
10
10
10
10
10
10
10
10
10
10
10
10
10
10
10
10
10
10
10
10
10
10
10
10
10
10
10
10
10
10
10
10
10
10
10
10
10
10
10
10
10
10
10
10
10
10
10
10
10
10
10
10
10
10
10
10
10
10
10
10
10
10
10
10
10
10
10
10
10
10
10
10
10
10
10
10
10
10
10
10
10
10
10
10
10
10
10
10
10
10
10
10
10
10
10
10
10
10
10
10
10
10
10
10
10
10
10
10
10
10
10
10
10
10
10
10
10
10
10
10
10
10
10
10
10
10
10
10
10
10
10
10
10
10
10
10
10
10
10
10
10
10
10
10
10
10
10
10
10
10
10
10
10
10
10
10
10
10
10
10
10
10
10
10
10
10
10
10
10
10
10
10
10
10
10
10
10
10
10
10
10
10
10
10
10
10
10
10
10
10
10
10
10
10
10
10
10
10
10
10
10
10
10
10
10
10
10
10
10
10
10
10
10
10
10
10
10
10
10
10
10
10
10
10
10
10
10
10
10
10
10
10
10
10
10
10
10
10
10
10
10
10
10
10
10
10
10
10
10
10
10
10
10
10
10
10
10
10
10
10
10
10
10
10
10
10
10
10
10
10
10
10
10
10
10
10
10
10
10
10
10
10
10
10
10
10
10
10
10
10
10
10
10
10
10
10
10
10
10
10
10
10
10
10
10
10
10
10
10
10
10
10
10
10
10
10
10
10
10
10
10
10
10
10
10
10
10
10
10
10
10
10
10
10
10
10
10
10
10
10
10
10
10
10
10
10
10
10
10
10
10
10
10
10
10
10
10
10
10
10
10
10
10
10
10
10
10
10
10
10
10
10
10
10
10
10
10
10
10
10
10
10
10
10
10
10
10
10
10
10
10
10
10
10
10
10
10
10
10
10
10
10
10
10
10
10
10
10
10
10
10
10
10
10
10
10
10
10
10
10
10
10
10
10
10
10
10
10
10
10
10
10
10
10
10
10
10
10
10
10
10
10
10
10
10
10
10
10
10
10
10
10
10
10
10
10
10
10
10
10
10
10
10
10
10
10
10
10
10
10
10
10
10
10
10
10
10
10
10
10
10
10
10
10
10
10
10
10
10
10
10
10
10
10
10
10
10
10
10
10
10
10
10
10
10
10
10
10
10
10
10
10
10
10
10
10
10
10
10
10
10
10
10
10
10
10
10
10
10
10
10
10
10
10
10
10
10
10
10
10
10
10
10
10
10
10
10
10
10
10
10
10
10
10
10
10
POINT_DATA 276
SCALARS u float 1
LOOKUP_TABLE default
1.000000
1.000000
1.000000
1.000000
1.000000
1.000000
1.000000
1.000000
1.000000
1.000000
1.000000
1.000000
1.000000
1.000000
1.000000
1.000000
1.000000
1.000000
1.000000
1.000000
1.000000
1.000000
1.000000
1.000000
1.000000
1.000000
1.000000
1.000000
1.000000
1.000000
1.000000
1.000000
1.000000
1.000000
1.000000
1.000000
1.000000
1.000000
1.000000
1.000000
1.000000
1.000000
1.000000
1.000000
1.000000
1.000000
1.000000
1.000000
1.000000
1.000000
1.000000
1.000000
1.000000
1.000000
1.000000
1.000000
1.000000
1.000000
1.000000
1.000000
1.000000
1.000000
1.000000
1.000000
1.000000
1.000000
1.000000
1.000000
1.000000
1.000000
1.000000
1.000000
1.000000
1.000000
1.000000
1.000000
1.000000
1.000000
1.000000
1.000000
1.000000
1.000000
1.000000
1.000000
1.000000
1.000000
1.000000
1.000000
1.000000
1.000000
1.000000
1.000000
1.000000
1.000000
1.000000
1.000000
1.000000
1.000000
1.000000
1.000000
1.000000
1.000000
1.000000
1.000000
1.000000
1.000000
1.000000
1.000000
1.000000
1.000000
1.000000
1.000000
1.000000
1.000000
1.000000
1.000000
1.000000
1.000000
1.000000
1.000000
1.000000
1.000000
1.000000
1.000000
1.000000
1.000000
1.000000
1.000000
1.000000
1.000000
1.000000
1.000000
1.000000
1.000000
1.000000
1.000000
1.000000
1.000000
1.000000
1.000000
1.000000
1.000000
1.000000
1.000000
1.000000
1.000000
1.000000
1.000000
1.000000
1.000000
1.000000
1.000000
1.000000
1.000000
1.000000
1.000000
1.000000
1.000000
1.000000
1.000000
1.000000
1.000000
1.000000
1.000000
1.000000
1.000000
1.000000
1.000000
1.000000
1.000000
1.000000
1.000000
1.000000
1.000000
1.000000
1.000000
1.000000
1.000000
1.000000
1.000000
1.000000
1.000000
1.000000
1.000000
1.000000
1.000000
1.000000
1.000000
1.000000
1.000000
1.000000
1.000000
1.000000
1.000000
1.000000
1.000000
1.000000
1.000000
1.000000
1.000000
1.000000
1.000000
1.000000
1.000000
1.000000
1.000000
1.000000
1.000000
1.000000
1.000000
1.000000
1.000000
1.000000
1.000000
1.000000
1.000000
1.000000
1.000000
1.000000
1.000000
1.000000
1.000000
1.000000
1.000000
1.000000
1.000000
1.000000
1.000000
1.000000
1.000000
1.000000
1.000000
1.000000
1.000000
1.000000
1.000000
1.000000
1.000000
1.000000
1.000000
1.000000
1.000000
1.000000
1.000000
1.000000
1.000000
1.000000
1.000000
1.000000
1.000000
1.000000
1.000000
1.000000
1.000000
1.000000
1.000000
1.000000
1.000000
1.000000
1.000000
1.000000
1.000000
1.000000
1.000000
1.000000
1.000000
1.000000
1.000000
1.000000
1.000000
1.000000
1.000000
1.000000
1.000000
1.000000
1.000000
