# vtk DataFile Version 2.0
Unstructured Grid Example
ASCII
DATASET UNSTRUCTURED_GRID
POINTS 2674 float
0.031279 0.431171 -0.053133 
0.534459 -0.062062 0.026561 
0.031376 -0.569238 0.052838 
-0.464571 -0.061491 -0.026945 
-0.031546 0.569919 3.946915 
0.463842 0.061741 4.027573 
-0.031685 -0.431587 4.053087 
-0.534780 0.061762 3.973112 
0.031847 0.305697 -0.036911 
0.409700 -0.063839 0.018568 
0.032487 -0.444735 0.036654 
-0.339316 -0.062928 -0.018643 
-0.032303 0.445346 3.963262 
0.338550 0.063283 4.018883 
-0.032414 -0.306160 4.036857 
-0.410034 0.063365 3.981397 
0.067346 0.559204 3.953284 
0.161843 0.529340 3.961343 
0.248407 0.481250 3.970911 
0.323465 0.417385 3.981774 
0.384490 0.340109 3.993516 
0.429021 0.252792 4.005208 
0.455636 0.158825 4.016511 
0.453097 -0.034743 4.037384 
0.423938 -0.127071 4.045698 
0.377826 -0.212046 4.052292 
0.316293 -0.286569 4.056939 
0.241651 -0.347636 4.059335 
0.156627 -0.393093 4.059469 
0.064455 -0.421603 4.057428 
-0.127940 -0.423029 4.046818 
-0.221033 -0.395709 4.038501 
-0.307163 -0.351090 4.029046 
-0.383135 -0.290061 4.018424 
-0.446055 -0.215387 4.007073 
-0.493670 -0.129728 3.995455 
-0.523532 -0.036179 3.983854 
-0.526433 0.160287 3.963241 
-0.498961 0.255644 3.954915 
-0.453099 0.343851 3.948195 
-0.390513 0.421242 3.943458 
-0.313849 0.484722 3.940923 
-0.226036 0.531923 3.940705 
-0.130613 0.560612 3.942640 
-0.453917 0.035047 -0.036815 
-0.424779 0.127381 -0.045114 
-0.378539 0.212385 -0.051814 
-0.316854 0.286767 -0.056562 
-0.242108 0.347683 -0.059068 
-0.157024 0.393079 -0.059309 
-0.064813 0.421346 -0.057372 
0.127604 0.422255 -0.046880 
0.220556 0.395012 -0.038864 
0.306654 0.350248 -0.029397 
0.382749 0.289582 -0.018765 
0.445779 0.214942 -0.007180 
0.493311 0.129312 0.004463 
0.523281 0.035857 0.015754 
0.526248 -0.160553 0.036484 
0.499043 -0.255963 0.044862 
0.453198 -0.344108 0.051666 
0.390689 -0.421445 0.056410 
0.313875 -0.484965 0.058929 
0.225984 -0.531840 0.059131 
0.130505 -0.560250 0.057102 
-0.067334 -0.558467 0.046543 
-0.161850 -0.528393 0.038567 
-0.248345 -0.480370 0.029063 
-0.323652 -0.416683 0.018282 
-0.384665 -0.339599 0.006918 
-0.429551 -0.252554 -0.004663 
-0.456337 -0.158579 -0.015978 
0.025720 0.444017 0.047350 
0.019479 0.457077 0.148187 
0.012928 0.470438 0.249402 
0.006185 0.483845 0.351160 
-0.000449 0.497071 0.453661 
-0.006657 0.509668 0.556834 
-0.012560 0.521432 0.661008 
-0.017980 0.531643 0.765813 
-0.022294 0.540083 0.871174 
-0.025353 0.546419 0.976420 
-0.027645 0.550591 1.081796 
-0.028444 0.552741 1.188180 
-0.028399 0.552430 1.293700 
-0.027082 0.549807 1.398958 
-0.024402 0.545200 1.504168 
-0.020997 0.538662 1.608975 
-0.016574 0.530380 1.712087 
-0.011627 0.521554 1.814414 
-0.006332 0.511569 1.916051 
-0.000484 0.501071 2.016664 
0.005166 0.490320 2.116691 
0.010802 0.479800 2.215224 
0.015840 0.469872 2.312790 
0.020362 0.461106 2.408895 
0.024189 0.455048 2.504452 
0.026819 0.449970 2.599274 
0.028458 0.447232 2.694000 
0.028792 0.446952 2.788203 
0.028020 0.449828 2.882818 
0.025785 0.453945 2.976652 
0.022192 0.460257 3.071199 
0.018042 0.468676 3.166017 
0.013057 0.478942 3.261402 
0.006988 0.490548 3.357153 
0.000563 0.503334 3.453885 
-0.006224 0.516654 3.551252 
-0.013001 0.530255 3.649445 
-0.019646 0.543725 3.748112 
-0.025887 0.556979 3.847368 
-0.471084 -0.050585 0.073286 
-0.477772 -0.038232 0.173680 
-0.484589 -0.025263 0.274210 
-0.491530 -0.011917 0.375346 
-0.498152 0.001179 0.476405 
-0.504467 0.013669 0.577979 
-0.510542 0.025270 0.680345 
-0.515858 0.035484 0.782478 
-0.520142 0.043900 0.885001 
-0.523096 0.049982 0.988209 
-0.525248 0.054438 1.090910 
-0.526186 0.056107 1.194122 
-0.526129 0.055641 1.296801 
-0.525369 0.053056 1.399101 
-0.523136 0.047997 1.501821 
-0.519637 0.040866 1.604708 
-0.515643 0.032430 1.706416 
-0.510863 0.022520 1.807923 
-0.505603 0.011862 1.908635 
-0.500208 0.000298 2.008847 
-0.494724 -0.010916 2.108712 
-0.489238 -0.021735 2.207780 
-0.484316 -0.031796 2.306487 
-0.480054 -0.040664 2.404508 
-0.476578 -0.047990 2.502077 
-0.474516 -0.053189 2.599562 
-0.473389 -0.055758 2.696713 
-0.472928 -0.056467 2.794125 
-0.474186 -0.054611 2.891074 
-0.476408 -0.050293 2.988278 
-0.479754 -0.043717 3.085623 
-0.483812 -0.035191 3.182802 
-0.489135 -0.025084 3.280277 
-0.495056 -0.013421 3.378211 
-0.501226 -0.000965 3.476870 
-0.507864 0.012306 3.575577 
-0.514728 0.025574 3.674446 
-0.521474 0.038548 3.773726 
-0.528270 0.050884 3.873342 
0.025822 -0.556450 0.152364 
0.019633 -0.543341 0.251688 
0.013066 -0.529923 0.350454 
0.006283 -0.516508 0.448539 
-0.000360 -0.503333 0.546051 
-0.006653 -0.490844 0.642788 
-0.012656 -0.479290 0.738372 
-0.017937 -0.469186 0.834436 
-0.022103 -0.460659 0.929277 
-0.025420 -0.454094 1.023393 
-0.027504 -0.449771 1.117617 
-0.028615 -0.447861 1.211777 
-0.028365 -0.447829 1.306017 
-0.026888 -0.450116 1.400886 
-0.024534 -0.454817 1.496145 
-0.021064 -0.461158 1.591890 
-0.016508 -0.469131 1.688187 
-0.011304 -0.478363 1.784935 
-0.005742 -0.488927 1.883422 
-0.000030 -0.499797 1.982959 
0.005742 -0.510490 2.083474 
0.011244 -0.521002 2.185051 
0.016510 -0.530704 2.287413 
0.020945 -0.539177 2.391263 
0.024648 -0.545862 2.495526 
0.027048 -0.550354 2.600415 
0.028724 -0.552767 2.705995 
0.029186 -0.552886 2.811804 
0.027988 -0.550724 2.917515 
0.025740 -0.546176 3.023248 
0.022395 -0.539484 3.128925 
0.018122 -0.530814 3.234020 
0.012921 -0.520805 3.338704 
0.007018 -0.509457 3.442939 
0.000608 -0.496973 3.546029 
-0.006135 -0.483961 3.648446 
-0.013002 -0.470741 3.750485 
-0.019692 -0.457457 3.851804 
-0.026001 -0.444394 3.952656 
0.528023 -0.051166 0.126307 
0.521610 -0.038871 0.225717 
0.514943 -0.025884 0.325321 
0.508149 -0.012546 0.424403 
0.501530 0.000632 0.523044 
0.495184 0.013229 0.621583 
0.489425 0.024779 0.719402 
0.484030 0.035154 0.817047 
0.479877 0.043623 0.914431 
0.476643 0.050035 1.011646 
0.474082 0.054400 1.108669 
0.473065 0.056453 1.205753 
0.473036 0.055822 1.302828 
0.474301 0.052834 1.400166 
0.476456 0.048143 1.497439 
0.480138 0.040989 1.595289 
0.484377 0.032405 1.693681 
0.488912 0.022441 1.792557 
0.494055 0.011520 1.892092 
0.499305 0.000219 1.992013 
0.504613 -0.011178 2.091646 
0.509808 -0.022197 2.191985 
0.515132 -0.032283 2.293320 
0.519435 -0.041187 2.395758 
0.522933 -0.048091 2.497905 
0.525626 -0.053101 2.600388 
0.527007 -0.056065 2.702971 
0.527336 -0.056533 2.806144 
0.526019 -0.054624 2.908978 
0.524042 -0.050391 3.012252 
0.520486 -0.043873 3.114991 
0.515787 -0.035456 3.217846 
0.510777 -0.025218 3.320486 
0.504544 -0.013681 3.422534 
0.498005 -0.001129 3.524035 
0.491167 0.012108 3.625173 
0.484391 0.025386 3.726092 
0.477419 0.038421 3.826931 
0.470558 0.050734 3.927358 
-0.325363 0.032893 -0.027615 
-0.287547 0.121681 -0.034747 
-0.228453 0.197601 -0.039401 
-0.152083 0.255926 -0.041564 
-0.063359 0.292755 -0.040600 
0.127498 0.293946 -0.030843 
0.217391 0.258054 -0.022732 
0.295276 0.199822 -0.013134 
0.356078 0.123628 -0.002284 
0.395103 0.033549 0.008356 
0.131335 -0.432495 0.040353 
0.223389 -0.394540 0.041314 
0.302087 -0.333919 0.039163 
0.361936 -0.254356 0.034311 
0.398586 -0.162276 0.027472 
-0.065931 -0.430427 0.030620 
-0.156873 -0.391159 0.022635 
-0.234012 -0.329607 0.012827 
-0.292414 -0.250526 0.002092 
-0.328298 -0.159608 -0.008491 
-0.398690 0.161779 3.972444 
-0.361879 0.254097 3.965357 
-0.302025 0.333625 3.960827 
-0.223146 0.394586 3.958632 
-0.131115 0.432871 3.959583 
0.327605 0.159982 4.008783 
0.292092 0.251144 3.997859 
0.233890 0.330377 3.987370 
0.156806 0.391913 3.977639 
0.066008 0.431287 3.969333 
0.062769 -0.293077 4.040760 
0.151531 -0.255913 4.041512 
0.227761 -0.197550 4.039514 
0.286716 -0.121568 4.034886 
0.324570 -0.032575 4.028100 
-0.128012 -0.294595 4.030795 
-0.217932 -0.258717 4.022675 
-0.295709 -0.200653 4.012743 
-0.356369 -0.124054 4.002117 
-0.395384 -0.034129 3.991480 
-0.026597 0.432185 3.863842 
-0.020294 0.418779 3.764758 
-0.013547 0.405008 3.665983 
-0.006742 0.391009 3.567511 
0.000072 0.377312 3.469502 
0.006410 0.364370 3.371875 
0.012239 0.352421 3.274481 
0.017521 0.342015 3.177148 
0.021992 0.333554 3.079914 
0.025038 0.326925 2.983130 
0.027232 0.322320 2.886779 
0.028259 0.320564 2.789889 
0.027910 0.320309 2.692913 
0.025953 0.323018 2.595705 
0.023780 0.327751 2.498265 
0.020283 0.334976 2.400572 
0.015653 0.343619 2.301875 
0.010583 0.353916 2.203344 
0.004950 0.364845 2.104390 
-0.000863 0.376059 2.005128 
-0.006487 0.386885 1.904833 
-0.011893 0.397332 1.804294 
-0.016656 0.406572 1.702802 
-0.021055 0.414947 1.600206 
-0.024173 0.421943 1.498123 
-0.026570 0.426819 1.395446 
-0.027939 0.429481 1.292512 
-0.028207 0.429819 1.189444 
-0.027135 0.427903 1.086159 
-0.025105 0.423473 0.982547 
-0.021836 0.416983 0.879659 
-0.017646 0.408463 0.776447 
-0.012565 0.398030 0.673848 
-0.006653 0.386091 0.571374 
-0.000122 0.373070 0.469091 
0.006580 0.359512 0.367204 
0.013353 0.345767 0.265709 
0.019941 0.332070 0.164473 
0.026206 0.318800 0.063633 
0.403176 -0.052640 0.118375 
0.396515 -0.040226 0.218171 
0.389768 -0.027047 0.317324 
0.382913 -0.013663 0.416463 
0.376089 -0.000613 0.515650 
0.369571 0.012106 0.614356 
0.363457 0.023750 0.713034 
0.358314 0.034036 0.811663 
0.353845 0.042617 0.909947 
0.350432 0.049168 1.008264 
0.348260 0.053399 1.106599 
0.346986 0.055402 1.204820 
0.346902 0.055084 1.303431 
0.348210 0.052486 1.402031 
0.350752 0.047359 1.501133 
0.354158 0.040664 1.599963 
0.358693 0.031904 1.698552 
0.363580 0.022033 1.797873 
0.368891 0.011248 1.897057 
0.374238 0.000162 1.997037 
0.379624 -0.011292 2.097557 
0.385247 -0.022047 2.198567 
0.390594 -0.032249 2.299269 
0.395282 -0.040858 2.399950 
0.398947 -0.047905 2.501083 
0.401295 -0.052761 2.602254 
0.403061 -0.055615 2.703672 
0.403340 -0.056081 2.805292 
0.402476 -0.054044 2.906848 
0.399890 -0.049755 3.008509 
0.396479 -0.043152 3.110077 
0.392070 -0.034771 3.211671 
0.386487 -0.024484 3.312988 
0.380188 -0.012875 3.414384 
[...]
POINT_DATA 2674
SCALARS u float 1
LOOKUP_TABLE default
0.018671
0.015315
0.018705
0.015338
0.018849
0.015493
0.018631
0.015318
0.017121
0.015153
0.017219
0.015095
0.017313
0.015241
0.017083
0.015105
0.017879
0.016793
0.015653
0.014727
0.014148
0.014125
0.014621
0.016579
0.017688
0.018621
0.019293
0.019656
0.019675
0.019301
0.017677
0.016601
0.015501
0.014635
0.014090
0.014033
0.014465
0.016399
0.017543
0.018568
0.019322
0.019746
0.019815
0.019501
0.016405
0.017507
0.018458
0.019176
0.019583
0.019629
0.019307
0.017781
0.016715
0.015633
0.014706
0.014149
0.014074
0.014479
0.016399
0.017574
0.018598
0.019349
0.019764
0.019780
0.019409
0.017746
0.016629
0.015506
0.014590
0.014049
0.014025
0.014486
0.016375
0.014153
0.012125
0.010469
0.009382
0.009039
0.009342
0.010089
0.010946
0.011701
0.012216
0.012341
0.012115
0.011457
0.010413
0.009073
0.007407
0.005742
0.004198
0.003376
0.004036
0.005557
0.007347
0.009051
0.010354
0.011471
0.012174
0.012426
0.012119
0.011662
0.010884
0.010025
0.009268
0.008977
0.009343
0.010484
0.012191
0.014274
0.016523
0.012952
0.010399
0.007931
0.005792
0.004788
0.005314
0.006810
0.008614
0.010219
0.011377
0.012263
0.012567
0.012437
0.011884
0.010772
0.009210
0.007390
0.005300
0.003173
0.001789
0.003017
0.005147
0.007283
0.009197
0.010798
0.011917
0.012501
0.012709
0.012338
0.011472
0.010159
0.008563
0.006811
0.005266
0.004684
0.005750
0.007888
0.010377
0.012936
0.016409
0.014195
0.012143
0.010437
0.009329
0.008943
0.009174
0.010016
0.010869
0.011609
0.012106
0.012251
0.012060
0.011452
0.010418
0.009077
0.007465
0.005796
0.004192
0.003443
0.004122
0.005683
0.007489
0.009148
0.010559
0.011550
0.012199
0.012436
0.012229
0.011669
0.010876
0.009971
0.009255
0.008997
0.009321
0.010386
0.012079
0.014117
0.016341
0.012931
0.010380
0.007915
0.005784
0.004668
0.005207
0.006708
0.008528
0.010135
0.011403
0.012301
0.012692
0.012539
0.011871
0.010841
0.009252
0.007380
0.005277
0.003068
0.001621
0.002970
0.005164
0.007329
0.009242
0.010774
0.011914
0.012589
0.012749
0.012359
0.011550
0.010242
0.008632
0.006917
0.005405
0.004878
0.005920
0.008003
0.010521
0.013078
0.015959
0.016813
0.017458
0.017753
0.017626
0.016340
0.015467
0.014778
0.014381
0.014548
0.017778
0.017918
0.017643
0.016940
0.016077
0.016363
0.015467
0.014693
0.014320
0.014480
0.016010
0.016921
0.017592
0.017911
0.017828
0.014620
0.014461
0.014835
0.015588
0.016508
0.017636
0.017796
0.017536
0.016919
0.016121
0.016265
0.015391
0.014650
0.014329
0.014475
0.014689
0.012073
0.009565
0.007444
0.006180
0.006212
0.007316
0.008847
0.010313
0.011470
0.012277
0.012560
0.012489
0.011772
0.010694
0.009067
0.007096
0.004814
0.002449
0.001072
0.002905
0.005185
0.007235
0.009124
0.010676
0.011802
0.012463
0.012638
0.012335
0.011580
0.010408
0.009004
0.007485
0.006347
0.006258
0.007448
0.009496
0.011959
0.014525
0.012623
0.009922
0.007143
0.004609
0.003172
0.003950
0.005950
0.008014
0.009822
0.011231
0.012140
0.012582
0.012514
0.011914
0.010753
0.009233
0.007246
0.005033
0.002654
0.000619
0.002514
0.004921
0.007240
0.009217
0.010824
0.011920
0.012609
0.012741
0.012328
0.011372
0.009950
0.008174
0.006062
0.004039
0.003177
0.004637
0.007165
0.009911
0.012654
0.014478
0.011906
0.009482
0.007460
0.006260
0.006328
0.007400
0.008834
0.010289
0.011547
0.012360
0.012682
0.012596
0.011930
0.010834
0.009246
0.007258
0.005018
0.002662
0.000903
0.002730
0.005087
0.007298
0.009140
0.010648
0.011719
0.012391
0.012553
0.012219
0.011445
0.010239
0.008737
0.007303
0.006248
0.006211
0.007441
0.009524
0.012009
0.014618
0.012544
0.009817
0.007032
0.004555
0.003131
0.004033
0.006063
0.008096
0.009888
0.011310
0.012171
0.012548
0.012404
0.011785
0.010728
0.009268
0.007333
0.005161
0.002754
0.000493
0.002411
0.004889
0.007167
0.009146
0.010730
0.011889
0.012489
0.012633
0.012244
0.011277
0.009905
0.008116
0.006075
0.004029
0.003194
0.004542
0.007071
0.009825
0.012557
0.012439
0.005249
0.012410
0.011456
0.009979
0.007707
0.012514
0.012462
0.011105
0.012085
0.007500
0.009042
0.010432
0.007630
0.006565
0.008187
0.009619
0.008285
0.006979
0.006413
0.012508
0.011889
0.014119
0.014061
0.015406
0.015269
0.012661
0.011664
0.011317
0.012280
0.010226
0.010127
0.007111
0.005911
0.003028
0.011343
0.012576
0.012271
0.012213
0.006854
0.005315
0.012564
0.011181
0.002938
0.010651
0.010457
0.005819
0.012550
0.003115
0.012702
0.006966
0.012730
0.009135
0.005795
0.012501
0.008699
0.003172
0.007766
0.011563
0.011438
0.008175
0.008130
0.001046
0.000760
0.006865
0.007959
0.007053
0.008477
0.014625
0.010379
0.013631
0.015084
0.014086
0.013483
0.009430
0.012898
0.011305
0.011757
0.013510
0.003737
0.008805
0.010606
0.010762
0.009247
0.009509
0.008623
0.011524
0.015893
0.015318
0.006065
0.006905
0.006298
0.007091
0.007154
0.007876
0.008894
0.009148
0.012705
0.012710
0.007591
0.005832
0.011679
0.011724
0.008851
0.007749
0.001821
0.001787
0.007112
0.007076
0.011884
0.011767
0.012688
0.012743
0.009007
0.008418
0.008829
0.008813
0.004471
0.004473
0.002340
0.002157
0.004327
0.004199
0.008698
0.008661
0.010386
0.010554
0.006942
0.004515
0.005205
0.006795
0.007384
0.007755
0.011513
0.011640
0.012387
0.012352
0.008685
0.009190
0.010307
0.010549
0.011036
0.010887
0.006835
0.007829
0.012384
0.012278
0.012598
0.012566
0.012373
0.012386
0.009742
0.009645
0.012625
0.012650
0.011513
0.011566
0.005243
0.005198
0.012413
0.012407
0.005829
0.006940
0.006623
0.004561
0.006621
0.006638
0.010478
0.010384
0.006852
0.006013
0.008490
0.008782
0.006518
0.006446
0.010164
0.009850
0.012372
0.012338
0.012057
0.012069
0.010392
0.010348
0.010280
0.010258
0.007678
0.006520
0.011345
0.011368
0.012696
0.012701
0.007754
0.007314
0.008785
0.006692
0.008345
0.006449
0.008711
0.013954
0.015787
0.015466
0.011441
0.011508
0.011062
0.012255
0.012258
0.006847
0.001255
0.012168
0.012105
0.012079
0.012553
0.012582
0.004415
0.006770
0.006931
0.010726
0.008763
0.010782
0.010043
0.009496
0.005952
0.010206
0.010202
0.012657
0.003151
0.006906
0.006811
0.011346
0.011341
0.006692
0.005132
0.009243
0.009213
0.001594
0.001676
0.008054
0.008043
0.012303
0.012336
0.005782
0.005809
0.003445
0.003409
0.003661
0.003706
0.013250
0.014932
0.001968
0.002047
0.012256
0.003691
0.012557
0.008891
0.006364
0.011902
0.009022
0.006734
0.011043
0.012567
0.007876
0.002527
0.007356
0.011260
0.005082
0.002639
0.007224
0.002638
0.003037
0.009252
0.000956
0.011575
0.011972
0.010983
0.014041
0.011920
0.013525
0.012585
0.008560
0.009895
0.012520
0.010915
0.005813
0.012437
0.004057
0.011279
0.007708
0.011966
0.011079
0.012162
0.010877
0.010563
0.007622
0.012129
0.009436
0.008186
0.011956
0.007592
0.009332
0.005155
0.001986
0.005720
0.005744
0.001355
0.004569
0.002397
0.005498
0.010639
0.008904
0.002062
0.011627
0.005036
0.007382
0.010571
0.009037
0.002039
0.011794
0.000352
0.000847
0.006201
0.008129
0.010355
0.006603
0.009273
0.007953
0.010738
0.012314
0.004881
0.010624
0.012495
0.012413
0.010508
0.005783
0.007995
0.009381
0.007112
0.009775
0.009732
0.003480
0.004548
0.005185
0.005204
0.002392
0.002421
0.003751
0.005436
0.010172
0.010300
0.012716
0.012724
0.008654
0.008860
0.010244
0.012701
0.012655
0.012582
0.012677
0.009517
0.010020
0.011918
0.011847
0.012966
0.002766
0.005542
0.004381
0.004271
0.008234
0.009064
0.012499
0.009113
0.009074
0.012644
0.012520
0.012409
0.008409
0.008136
0.005101
0.001633
0.008982
0.008831
0.007586
0.006661
0.003592
0.000581
0.000486
0.000649
0.006597
0.006581
0.012038
0.012252
0.008624
0.008548
0.011912
0.011907
0.010480
0.010654
0.007190
0.007164
0.011306
0.011413
0.001272
0.001160
0.006260
0.006741
0.000816
0.003551
0.011792
0.011706
0.003687
0.003762
0.010475
0.010598
0.001584
0.001851
0.005557
0.007001
0.012439
0.012490
0.002591
0.002683
0.006714
0.006838
0.010433
0.009294
0.009384
0.010481
0.004627
0.003024
0.004596
0.006752
0.004478
0.007341
0.006600
0.005579
0.015061
0.012904
0.014775
0.013083
0.012702
0.001473
0.012167
0.012243
0.010538
0.010334
0.012231
0.012380
0.005124
0.008896
0.010996
0.011213
0.004448
0.003210
0.007689
0.007734
0.009504
0.009512
0.012623
0.012638
0.006526
0.005863
0.002201
0.005761
0.008271
0.010380
0.003323
0.006043
0.007423
0.004822
0.004766
0.011103
0.011126
0.012680
0.012632
0.012620
0.011927
0.012498
0.012568
0.012379
0.012555
0.006815
0.003819
0.011872
0.011524
0.002072
0.004565
0.011135
0.010548
0.011748
0.012403
0.012643
0.005265
0.007600
0.011155
0.012009
0.007747
0.012491
0.005847
0.009580
0.012416
0.011192
0.007184
0.009881
0.007928
0.006478
0.006967
0.007280
0.006476
0.011270
0.001118
0.013448
0.013703
0.012632
0.012565
0.015673
0.015996
0.014425
0.014576
0.011653
0.011786
0.011279
0.011292
0.005089
0.002675
0.012232
0.010248
0.012346
0.002785
0.010570
0.010228
0.011467
0.002270
0.003975
0.009156
0.008672
0.005697
0.009075
0.002256
0.004033
0.006878
0.008981
0.006936
0.012491
0.007723
0.012340
0.006775
0.005952
0.007617
0.007938
0.012415
0.004986
0.012330
0.007677
0.007675
0.006803
0.005351
0.011621
0.011502
0.000951
0.001310
0.009013
0.013101
0.013169
0.010835
0.011107
0.008865
0.008875
0.014191
0.012301
0.013431
0.011735
0.003008
0.009159
0.011153
0.005829
0.007583
0.006479
0.006571
0.001470
0.001452
0.006628
0.006426
0.007040
0.001137
0.001323
0.002602
0.004550
0.004606
0.004678
0.004642
0.012021
0.012207
0.012600
0.012606
0.012294
0.012257
0.009271
0.009784
0.015107
0.015679
0.012626
0.012595
0.011179
0.007764
0.012423
0.012450
0.011340
0.008663
0.009012
0.006860
0.010864
0.010049
0.002502
0.002701
0.011974
0.011846
0.003963
0.004052
0.010833
0.010999
0.012483
0.012503
0.010480
0.010471
0.006751
0.006701
0.011620
0.011562
0.007576
0.007659
0.004508
0.006813
0.010833
0.011169
0.007890
0.008237
0.003921
0.003982
0.012362
0.012317
0.012280
0.012314
0.004500
0.006711
0.006011
0.005711
0.005792
0.011949
0.012090
0.012522
0.012603
0.008609
0.008728
0.006109
0.007661
0.010107
0.010197
0.006805
0.006844
0.011873
0.011832
0.008691
0.008738
0.005852
0.006863
0.007344
0.006546
0.006530
0.009704
0.011757
0.011796
0.007927
0.006127
0.007570
0.008777
0.011654
0.011709
0.008848
0.009710
0.008905
0.008225
0.007192
0.007545
0.009848
0.009193
0.007310
0.012027
0.015732
0.016043
0.013965
0.014046
0.005002
0.005107
0.009388
0.011301
0.005863
0.005876
0.001727
0.001624
0.012256
0.012360
0.012235
0.012203
0.011176
0.010995
0.010430
0.010372
0.010257
0.008615
0.008598
0.010343
0.009683
0.012544
0.008603
0.007573
0.009794
0.009887
0.015494
0.015128
0.008658
0.009946
0.009729
0.004184
0.012530
0.009252
0.011994
0.006974
0.012506
0.008124
0.007450
0.003723
0.008915
0.011756
0.006404
0.008975
0.012605
0.006763
0.012449
0.010479
0.012260
0.003675
0.011961
0.010522
0.009139
0.002125
0.004575
0.004599
0.008486
0.002298
0.003305
0.000953
0.011287
0.009987
0.009980
0.011317
0.011295
0.012375
0.012516
0.014097
0.013935
0.005392
0.003658
0.012575
0.011052
0.012590
0.011167
0.007620
0.007326
0.010584
0.012093
0.003712
0.004448
0.000753
0.012189
0.010497
0.007319
0.005704
0.012377
0.009162
0.004757
0.012206
0.002392
0.009084
0.005367
0.005373
0.011805
0.011716
0.010500
0.008955
0.002183
0.012543
0.005453
0.007778
0.010496
0.008924
0.002053
0.012526
0.000413
0.000760
0.006411
0.008341
0.009656
0.010248
0.007638
0.006219
0.005300
0.012944
0.010318
0.011052
0.013027
0.007045
0.005753
0.009774
0.009785
0.005077
0.005069
0.011797
0.011857
0.002451
0.002501
0.000998
0.008951
0.009157
0.012645
0.012669
0.002477
0.005888
0.001881
0.012606
0.012681
0.012712
0.012588
0.012948
0.010028
0.010281
0.006702
0.007049
0.011802
0.011701
0.003350
0.005542
0.007792
0.006870
0.008317
0.005114
0.007690
0.007983
0.008532
0.009092
0.011070
0.011150
0.005058
0.005089
0.012573
0.012585
0.006516
0.007471
0.009052
0.009023
0.012572
0.012574
0.006264
0.005527
0.009011
0.008535
0.012418
0.012407
0.004298
0.006057
0.005439
0.002861
0.006950
0.005704
0.011514
0.011340
0.008301
0.007966
0.000455
0.000680
0.009193
0.009121
0.007273
0.007250
0.012347
0.012180
0.011457
0.011576
0.010688
0.010625
0.007070
0.007087
0.011443
0.011531
0.010589
0.010527
0.012400
0.012380
0.001278
0.000938
0.012466
0.012421
0.004009
0.002583
0.003798
0.003682
0.002313
0.002316
0.002384
0.002356
0.006843
0.006817
0.002890
0.004509
0.010401
0.009410
0.009333
0.005350
0.002393
0.006805
0.011338
0.004496
0.008184
0.010327
0.012967
0.013097
0.015086
0.014982
0.009716
0.003359
0.009862
0.001521
0.012088
0.012106
0.010219
0.010020
0.007119
0.011821
0.011940
0.007735
0.007739
0.012100
0.012177
0.011140
0.011125
0.005152
0.001892
0.010519
0.010645
0.003968
0.000541
0.003162
0.012632
0.004814
0.004837
0.010594
0.010294
0.004885
0.005585
0.012292
0.012890
0.012369
0.012565
0.012448
0.012510
0.012095
0.011871
0.011521
0.011665
0.012567
0.012504
0.011361
0.011451
0.007648
0.006952
0.008053
0.008256
0.006129
0.009990
0.004166
0.011730
0.009123
0.006424
0.004199
0.011986
0.010809
0.012706
0.012536
0.001453
0.006084
0.003555
0.008283
0.011511
0.010276
0.011169
0.006140
0.009502
0.003611
0.006907
0.007223
0.010281
0.010941
0.012687
0.011717
0.004863
0.008751
0.003917
0.007893
0.002828
0.007769
0.003685
0.002824
0.011785
0.011733
0.004657
0.005109
0.009602
0.009397
0.011373
0.011400
0.006822
0.003432
0.009604
0.008714
0.006105
0.008174
0.002580
0.000522
0.010547
0.010014
0.003567
0.002706
0.008585
0.009736
0.008284
0.006688
0.010677
0.010279
0.012295
0.012441
0.007374
0.007419
0.012007
0.012307
0.011044
0.011297
0.012413
0.012657
0.005683
0.005422
0.011625
0.011360
0.009034
0.008973
0.012598
0.012830
0.012287
0.012391
0.008483
0.006208
0.010469
0.008849
0.006642
0.007707
0.010372
0.009344
0.005055
0.003429
0.001632
0.004687
0.003593
0.009003
0.005578
0.005706
0.006708
0.005681
0.002791
0.002149
0.003067
0.001099
0.012787
0.012480
0.003405
0.001919
0.007179
0.008389
0.004762
0.008285
0.004326
0.003395
0.003229
0.002769
0.012700
0.012569
0.010065
0.009700
0.012019
0.012173
0.004723
0.004904
0.011676
0.011956
0.011064
0.011192
0.010976
0.010886
0.007351
0.007339
0.009533
0.010384
0.004773
0.004204
0.009348
0.009233
0.012107
0.011893
0.007962
0.006440
0.007929
0.006193
0.010723
0.009983
0.011567
0.011952
0.008256
0.009650
0.011917
0.011904
0.010299
0.010852
0.011042
0.011415
0.010970
0.010741
0.006751
0.006594
0.012424
0.012754
0.008382
0.008521
0.012078
0.012160
0.012371
0.012293
0.008484
0.008443
0.009380
0.009448
0.010153
0.008928
0.008241
0.008803
0.012362
0.012685
0.012542
0.012682
0.010940
0.010770
0.010032
0.010299
0.012285
0.012619
0.012788
0.012616
0.005752
0.002738
0.003016
0.008111
0.009404
0.004767
0.005925
0.002544
0.008740
0.002778
0.000567
0.006749
0.006807
0.009046
0.007138
0.005696
0.007604
0.006160
0.003573
0.002044
0.005930
0.010624
0.011179
0.013025
0.010318
0.014624
0.012245
0.013561
0.009416
0.004236
0.003738
0.000711
0.001855
0.001712
0.004844
0.008074
0.003083
0.012387
0.001524
0.015268
0.011702
0.009215
0.004091
0.011599
0.012692
0.012510
0.012813
0.004605
0.007801
0.006899
0.009017
0.012412
0.012663
0.009577
0.012256
0.006779
0.011249
0.011315
0.011678
0.012332
0.012721
0.012110
0.012469
0.008937
0.011589
0.007860
0.007868
0.012682
0.006441
0.001544
0.013568
0.008645
0.009361
0.009537
0.013314
0.014315
0.011102
0.010316
0.010144
0.004193
0.006911
0.003814
0.005148
0.011570
0.010716
0.006853
0.002634
0.008555
0.005192
0.009622
0.009852
0.010619
0.012682
0.006584
0.012357
0.012570
0.003281
0.004998
0.004517
0.009347
0.012771
0.012568
0.011988
0.010347
0.012656
0.012722
0.012736
0.012446
0.005367
0.013048
0.008333
0.016567
0.016014
0.013467
0.008753
0.009528
0.015010
0.009988
0.009402
0.012126
0.005002
0.011210
0.006638
0.008394
0.012182
0.011828
0.010881
0.004710
0.012158
0.003773
0.012268
0.008611
0.009972
0.006755
0.011764
0.010827
0.011519
0.010161
0.009654
0.009631
0.017802
0.015267
0.015973
0.012912
0.011429
0.012275
0.012105
0.011687
0.011633
0.010782
0.010608
0.009798
0.008340
0.009951
0.007706
0.009953
0.008498
0.011055
0.010683
0.008030
0.008081
0.004806
0.004300
0.009459
0.009392
0.011648
0.011786
0.009722
0.010497
0.010473
0.008369
0.010787
0.008046
0.007625
0.007803
0.009952
0.008566
0.011450
0.011743
0.002894
0.003841
0.010254
0.009916
0.010495
0.009742
0.006344
0.006132
0.011878
0.012179
0.004655
0.004046
0.012354
0.012074
0.006482
0.006239
0.012322
0.012525
0.012206
0.012342
0.010907
0.011318
0.015640
0.013401
0.011458
0.009570
0.009178
0.011238
0.010116
0.009187
0.007680
0.007309
0.010299
0.012050
0.011924
0.009107
0.010560
0.009512
0.006958
0.012268
0.012382
0.012052
0.011852
0.003967
0.003620
0.011730
0.011436
0.007873
0.007915
0.002345
0.003735
0.011930
0.012269
0.003003
0.004148
0.012626
0.012331
0.012501
0.012032
0.007432
0.007570
0.008720
0.008717
0.010962
0.010343
0.010409
0.009444
0.011466
0.011186
0.009947
0.008878
0.012337
0.012145
0.012252
0.012103
0.012015
0.011948
0.010170
0.009524
0.010638
0.010375
0.012536
0.012212
0.012155
0.012193
0.010469
0.010397
0.009548
0.006813
0.005461
0.005309
0.009122
0.009226
0.011484
0.011364
0.011891
0.011924
0.004195
0.003867
0.011830
0.011369
0.007096
0.006876
0.005568
0.005447
0.003375
0.004315
0.010974
0.011168
0.010686
0.009849
0.011062
0.011419
0.005605
0.006011
0.012590
0.012376
0.010525
0.010299
0.010221
0.006441
0.007319
0.009986
0.011447
0.017349
0.009925
0.008524
0.009728
0.008913
0.009639
0.011646
0.012837
0.010347
0.014995
0.012125
0.009640
0.010847
0.007496
0.010086
0.014955
0.013294
0.015294
0.011777
0.010002
0.012045
0.010535
0.007744
0.015374
0.003708
0.016661
0.014539
0.017768
0.008606
0.009884
0.011195
0.011350
0.012341
0.006553
0.009299
0.009253
0.009560
0.005990
0.008192
0.011764
0.012065
0.010641
0.013405
0.010484
0.006674
0.006565
0.008101
0.017813
0.011023
0.011861
0.009843
0.009152
0.012538
0.012340
0.010617
0.012465
0.012149
0.010292
0.012279
0.012412
0.009775
0.010266
0.007257
0.009773
0.007977
0.012146
0.012093
0.009808
0.009242
0.010518
0.014157
0.009877
0.004883
0.004111
0.011606
0.011578
0.011716
0.012755
0.013477
0.015506
0.009483
0.009293
0.013946
0.010035
0.009123
0.005333
0.004775
0.016425
0.011054
0.011381
0.012812
0.010938
0.010644
0.010649
0.013849
0.014861
0.011616
0.013583
0.017470
0.012082
0.012018
0.010635
0.010236
0.008902
0.009043
0.016106
0.012058
0.011675
0.014263
0.016054
0.017723
0.014751
0.017235
0.012350
0.015283
0.016526
0.013492
0.014647
0.016765
0.016747
0.013990
0.008514
0.008064
0.006779
0.010334
0.009707
0.012481
0.011371
0.012309
0.012688
0.012361
0.004004
0.002239
0.012748
0.007855
0.005821
0.011865
0.007152
0.003386
0.004847
0.008561
0.011071
0.011041
0.014653
0.004857
0.008752
0.002399
0.007264
0.004754
0.007156
0.011894
0.012176
0.009614
0.009778
0.010218
0.009533
0.012492
0.012733
0.002291
0.007513
0.007499
0.007462
0.003017
0.007002
0.003141
0.006809
0.012254
0.012334
0.004686
0.005209
0.007538
0.009798
0.007664
0.009685
0.011180
0.011462
0.003174
0.003884
0.012802
0.012542
0.005423
0.005692
0.012407
0.012388
0.011526
0.011694
0.007806
0.011214
0.013213
0.010818
0.006433
0.010892
0.009497
0.007087
0.008938
0.012938
0.007763
0.011900
0.013590
0.011206
0.004822
0.003232
0.004576
0.005259
0.001266
0.002855
0.005711
0.005686
0.006837
0.012785
0.012636
0.006934
0.008932
0.010944
0.011012
0.001749
0.001004
0.006228
0.006100
0.008660
0.008695
0.009873
0.010635
0.008698
0.008663
0.011359
0.010967
0.000817
0.002863
0.005017
0.005519
0.006562
0.006828
0.008672
0.008646
0.007486
0.007391
0.008723
0.008788
0.005303
0.008229
0.010022
0.010532
0.010594
0.010702
0.008756
0.008168
0.012433
0.012282
0.010249
0.010416
0.010658
0.010662
0.004656
0.004851
0.003310
0.003667
0.012695
0.012384
0.012678
0.012577
0.012202
0.012232
0.010213
0.010492
0.011243
0.011577
0.011750
0.011910
0.011844
0.011988
0.012564
0.012666
0.011311
0.011377
0.007780
0.009348
0.002777
0.003836
0.011443
0.011834
0.012059
0.011990
0.005787
0.006109
0.012253
0.012624
0.012652
0.012474
0.011989
0.004444
0.005250
0.002699
0.005399
0.007266
0.004886
0.009833
0.005346
0.002154
0.015344
0.012363
0.001138
0.006690
0.003079
0.007933
0.009397
0.005603
0.000385
0.006432
0.010584
0.014188
0.008076
0.006205
0.008983
0.010183
0.008658
0.003330
0.001641
0.008758
0.012146
0.013109
0.011626
0.009654
0.011154
0.009436
0.016622
0.013199