# vtk DataFile Version 2.0
Unstructured Grid Example
ASCII
DATASET UNSTRUCTURED_GRID
POINTS 2674 float
-0.017084 0.537594 0.029021 
0.481178 0.033898 -0.014508 
-0.017138 -0.462182 -0.028860 
-0.519352 0.033586 0.014717 
0.017230 0.461810 4.028995 
0.519749 -0.033723 3.984940 
0.017307 -0.537367 3.971004 
-0.481003 -0.033735 4.014686 
-0.017395 0.412853 0.020161 
0.356047 0.034869 -0.010142 
-0.017745 -0.336911 -0.020020 
-0.394491 0.034371 0.010183 
0.017644 0.336577 4.020067 
0.394909 -0.034565 3.989686 
0.017704 -0.412601 3.979869 
-0.355865 -0.034610 4.010161 
0.114040 0.452808 4.025516 
0.207454 0.425126 4.021115 
0.293831 0.379951 4.015888 
0.369988 0.318688 4.009955 
0.432801 0.243744 4.003542 
0.479920 0.157778 3.997155 
0.509377 0.064074 3.990982 
0.510764 -0.131848 3.979581 
0.482697 -0.226446 3.975040 
0.436440 -0.313692 3.971438 
0.373905 -0.390140 3.968900 
0.297522 -0.452930 3.967591 
0.210303 -0.499544 3.967518 
0.115619 -0.527966 3.968633 
-0.080944 -0.527187 3.974428 
-0.175124 -0.498115 3.978971 
-0.261739 -0.451044 3.984135 
-0.337396 -0.388233 3.989937 
-0.399174 -0.311867 3.996136 
-0.444609 -0.224995 4.002482 
-0.472292 -0.131064 4.008819 
-0.470708 0.063276 4.020078 
-0.441719 0.156220 4.024625 
-0.395327 0.241700 4.028296 
-0.333366 0.316582 4.030883 
-0.258087 0.378054 4.032268 
-0.172392 0.423715 4.032387 
-0.079483 0.452039 4.031330 
-0.510316 0.131681 0.020108 
-0.482237 0.226277 0.024641 
-0.436051 0.313507 0.028301 
-0.373599 0.390032 0.030894 
-0.297272 0.452905 0.032263 
-0.210086 0.499551 0.032394 
-0.115424 0.528106 0.031336 
0.081127 0.527609 0.025606 
0.175385 0.498496 0.021228 
0.262017 0.451503 0.016057 
0.337607 0.388495 0.010250 
0.399324 0.312110 0.003922 
0.444805 0.225223 -0.002438 
0.472429 0.131239 -0.008605 
0.470808 -0.063130 -0.019927 
0.441674 -0.156046 -0.024503 
0.395272 -0.241560 -0.028220 
0.333270 -0.316471 -0.030811 
0.258073 -0.377921 -0.032187 
0.172420 -0.423760 -0.032297 
0.079542 -0.452237 -0.031189 
-0.114047 -0.453210 -0.025422 
-0.207450 -0.425643 -0.021066 
-0.293865 -0.380431 -0.015874 
-0.369886 -0.319072 -0.009986 
-0.432705 -0.244022 -0.003779 
-0.479630 -0.157908 0.002547 
-0.508994 -0.064209 0.008727 
-0.014049 0.530578 0.128758 
-0.010639 0.523444 0.228300 
-0.007061 0.516147 0.327637 
-0.003378 0.508824 0.426676 
0.000245 0.501600 0.525310 
0.003636 0.494719 0.623577 
0.006860 0.488294 0.721297 
0.009821 0.482717 0.818673 
0.012177 0.478107 0.915745 
0.013848 0.474646 1.012879 
0.015100 0.472367 1.109943 
0.015536 0.471193 1.206456 
0.015511 0.471363 1.303441 
0.014792 0.472795 1.400569 
0.013328 0.475312 1.497723 
0.011469 0.478883 1.595098 
0.009053 0.483406 1.693398 
0.006351 0.488227 1.792127 
0.003459 0.493681 1.891233 
0.000265 0.499415 1.990898 
-0.002821 0.505287 2.090883 
-0.005900 0.511033 2.191685 
-0.008652 0.516456 2.293014 
-0.011122 0.521244 2.395141 
-0.013212 0.524553 2.497568 
-0.014648 0.527327 2.600396 
-0.015544 0.528822 2.703277 
-0.015726 0.528975 2.806444 
-0.015305 0.527404 2.909385 
-0.014084 0.525155 3.012753 
-0.012122 0.521708 3.115731 
-0.009855 0.517109 3.218561 
-0.007132 0.511502 3.321082 
-0.003817 0.505163 3.423403 
-0.000308 0.498179 3.525188 
0.003400 0.490904 3.626626 
0.007101 0.483475 3.727613 
0.010730 0.476118 3.828341 
0.014139 0.468878 3.928748 
-0.515794 0.027630 0.114591 
-0.512141 0.020882 0.214376 
-0.508417 0.013798 0.314086 
-0.504626 0.006509 0.413466 
-0.501009 -0.000644 0.512888 
-0.497560 -0.007466 0.612028 
-0.494242 -0.013803 0.710736 
-0.491339 -0.019381 0.809571 
-0.488998 -0.023978 0.908192 
-0.487385 -0.027300 1.006440 
-0.486210 -0.029734 1.104965 
-0.485697 -0.030645 1.203210 
-0.485728 -0.030391 1.301747 
-0.486143 -0.028979 1.400491 
-0.487363 -0.026216 1.499005 
-0.489274 -0.022321 1.597429 
-0.491456 -0.017713 1.696495 
-0.494067 -0.012300 1.795672 
-0.496940 -0.006479 1.895283 
-0.499887 -0.000163 1.995168 
-0.502882 0.005962 2.095241 
-0.505878 0.011872 2.195751 
-0.508567 0.017367 2.296457 
-0.510895 0.022211 2.397538 
-0.512793 0.026212 2.498865 
-0.513920 0.029052 2.600239 
-0.514535 0.030455 2.701795 
-0.514787 0.030842 2.803209 
-0.514100 0.029829 2.904876 
-0.512886 0.027470 3.006403 
-0.511058 0.023878 3.107853 
-0.508842 0.019221 3.209394 
-0.505934 0.013701 3.310773 
-0.502701 0.007330 3.411901 
-0.499330 0.000527 3.512634 
-0.495705 -0.006722 3.613340 
-0.491956 -0.013968 3.713958 
-0.488271 -0.021055 3.814351 
-0.484559 -0.027793 3.914560 
-0.014104 -0.469167 0.071399 
-0.010723 -0.476327 0.171768 
-0.007137 -0.483656 0.272442 
-0.003432 -0.490983 0.373488 
0.000197 -0.498180 0.474847 
0.003634 -0.505001 0.576629 
0.006913 -0.511312 0.679041 
0.009797 -0.516830 0.781191 
0.012072 -0.521488 0.884009 
0.013884 -0.525074 0.987223 
0.015023 -0.527435 1.090377 
0.015629 -0.528478 1.193567 
0.015493 -0.528496 1.296714 
0.014686 -0.527246 1.399516 
0.013400 -0.524679 1.502106 
0.011505 -0.521216 1.604430 
0.009017 -0.516861 1.706452 
0.006174 -0.511818 1.808229 
0.003136 -0.506048 1.909055 
0.000016 -0.500111 2.009308 
-0.003137 -0.494270 2.109027 
-0.006141 -0.488529 2.208165 
-0.009018 -0.483229 2.306875 
-0.011440 -0.478601 2.404772 
-0.013463 -0.474950 2.502444 
-0.014774 -0.472497 2.599773 
-0.015689 -0.471179 2.696726 
-0.015941 -0.471114 2.793553 
-0.015287 -0.472295 2.890433 
-0.014059 -0.474779 2.987302 
-0.012232 -0.478434 3.084201 
-0.009898 -0.483169 3.181418 
-0.007057 -0.488636 3.278860 
-0.003833 -0.494834 3.376547 
-0.000332 -0.501653 3.474859 
0.003351 -0.508761 3.573539 
0.007102 -0.515981 3.672425 
0.010756 -0.523237 3.771705 
0.014202 -0.530372 3.871239 
0.484694 0.027947 0.085631 
0.488197 0.021231 0.185953 
0.491838 0.014138 0.286170 
0.495549 0.006853 0.386671 
0.499164 -0.000345 0.487414 
0.502631 -0.007226 0.588212 
0.505776 -0.013534 0.689402 
0.508723 -0.019201 0.790689 
0.510991 -0.023827 0.892118 
0.512758 -0.027329 0.993639 
0.514156 -0.029713 1.095265 
0.514712 -0.030835 1.196858 
0.514728 -0.030490 1.298455 
0.514037 -0.028858 1.399909 
0.512860 -0.026296 1.501399 
0.510849 -0.022388 1.602573 
0.508534 -0.017699 1.703451 
0.506057 -0.012257 1.804066 
0.503247 -0.006292 1.904319 
0.500380 -0.000120 2.004363 
0.497480 0.006105 2.104563 
0.494643 0.012124 2.204378 
0.491735 0.017633 2.303649 
0.489385 0.022497 2.402317 
0.487474 0.026267 2.501144 
0.486003 0.029004 2.599788 
0.485249 0.030623 2.698377 
0.485069 0.030878 2.796644 
0.485789 0.029836 2.895096 
0.486868 0.027524 2.993308 
0.488811 0.023963 3.091812 
0.491377 0.019366 3.190252 
0.494114 0.013774 3.288811 
0.497518 0.007473 3.387692 
0.501090 0.000617 3.486872 
0.504825 -0.006614 3.586250 
0.508526 -0.013866 3.685749 
0.512334 -0.020986 3.785290 
0.516081 -0.027711 3.885057 
-0.382355 0.132104 0.015083 
-0.345085 0.223450 0.018979 
-0.285217 0.302069 0.021521 
-0.206845 0.362357 0.022702 
-0.115463 0.400165 0.022176 
0.080430 0.399515 0.016846 
0.171174 0.361194 0.012416 
0.248718 0.300855 0.007174 
0.307653 0.222387 0.001248 
0.344263 0.131745 -0.004564 
0.078335 -0.323839 -0.022041 
0.167898 -0.286646 -0.022566 
0.244999 -0.227612 -0.021391 
0.304454 -0.150983 -0.018741 
0.342360 -0.061434 -0.015005 
-0.114058 -0.324969 -0.016725 
-0.204228 -0.288492 -0.012363 
-0.282181 -0.229967 -0.007006 
-0.342427 -0.153075 -0.001143 
-0.380752 -0.062892 0.004638 
-0.342304 0.061706 4.015051 
-0.304485 0.151125 4.018922 
-0.245032 0.227772 4.021397 
-0.168030 0.286620 4.022595 
-0.078455 0.323634 4.022076 
0.381130 0.062688 3.995203 
0.342603 0.152738 4.001170 
0.282247 0.229546 4.006899 
0.204265 0.288080 4.012214 
0.114016 0.324499 4.016751 
0.115785 -0.399989 3.977737 
0.207146 -0.362363 3.977326 
0.285595 -0.302096 3.978417 
0.345539 -0.223512 3.980945 
0.382788 -0.132277 3.984652 
-0.080149 -0.399160 3.983180 
-0.170878 -0.360832 3.987615 
-0.248482 -0.300402 3.993040 
-0.307494 -0.222154 3.998844 
-0.344109 -0.131429 4.004654 
0.014527 0.343765 3.919749 
0.011084 0.351088 3.819249 
0.007399 0.358610 3.718580 
0.003682 0.366256 3.617746 
-0.000039 0.373737 3.516658 
-0.003501 0.380806 3.415362 
-0.006685 0.387333 3.313939 
-0.009570 0.393016 3.212482 
-0.012012 0.397638 3.110971 
-0.013676 0.401258 3.009214 
-0.014874 0.403774 2.907221 
-0.015435 0.404733 2.805523 
-0.015244 0.404872 2.703871 
-0.014175 0.403393 2.602346 
-0.012988 0.400808 2.500947 
-0.011078 0.396861 2.399687 
-0.008550 0.392140 2.298976 
-0.005781 0.386516 2.198174 
-0.002704 0.380547 2.097602 
0.000471 0.374421 1.997199 
0.003543 0.368508 1.897360 
0.006496 0.362802 1.797655 
0.009098 0.357755 1.698470 
0.011500 0.353181 1.599887 
0.013203 0.349360 1.501025 
0.014512 0.346697 1.402487 
0.015260 0.345243 1.304090 
0.015407 0.345058 1.205766 
0.014821 0.346104 1.107560 
0.013712 0.348524 1.009533 
0.011927 0.352069 0.911110 
0.009638 0.356722 0.812864 
0.006863 0.362421 0.714284 
0.003634 0.368942 0.615636 
0.000066 0.376054 0.516882 
-0.003594 0.383459 0.417913 
-0.007294 0.390967 0.318730 
-0.010892 0.398448 0.219405 
-0.014314 0.405696 0.119864 
0.359610 0.028752 0.089964 
0.363248 0.021971 0.190075 
0.366934 0.014773 0.290538 
0.370678 0.007463 0.391008 
0.374405 0.000335 0.491452 
0.377965 -0.006612 0.592159 
0.381305 -0.012972 0.692881 
0.384114 -0.018591 0.793630 
0.386555 -0.023278 0.894567 
0.388419 -0.026855 0.995486 
0.389606 -0.029167 1.096396 
0.390301 -0.030261 1.197367 
0.390347 -0.030087 1.298126 
0.389633 -0.028668 1.398891 
0.388244 -0.025868 1.499381 
0.386384 -0.022211 1.600020 
0.383907 -0.017426 1.700791 
0.381238 -0.012035 1.801162 
0.378337 -0.006144 1.901607 
0.375416 -0.000088 2.001619 
0.372474 0.006167 2.101334 
0.369403 0.012042 2.200783 
0.366483 0.017615 2.300399 
0.363922 0.022317 2.400027 
0.361920 0.026166 2.499409 
0.360638 0.028818 2.598769 
0.359673 0.030377 2.697995 
0.359521 0.030631 2.797110 
0.359993 0.029519 2.896260 
0.361405 0.027176 2.995352 
0.363268 0.023570 3.094496 
0.365677 0.018992 3.193625 
0.368726 0.013373 3.292906 
0.372166 0.007032 3.392143 
[...]
POINT_DATA 2674
SCALARS u float 1
LOOKUP_TABLE default
0.018671
0.015315
0.018705
0.015338
0.018849
0.015493
0.018631
0.015318
0.017121
0.015153
0.017219
0.015095
0.017313
0.015241
0.017083
0.015105
0.017879
0.016793
0.015653
0.014727
0.014148
0.014125
0.014621
0.016579
0.017688
0.018621
0.019293
0.019656
0.019675
0.019301
0.017677
0.016601
0.015501
0.014635
0.014090
0.014033
0.014465
0.016399
0.017543
0.018568
0.019322
0.019746
0.019815
0.019501
0.016405
0.017507
0.018458
0.019176
0.019583
0.019629
0.019307
0.017781
0.016715
0.015633
0.014706
0.014149
0.014074
0.014479
0.016399
0.017574
0.018598
0.019349
0.019764
0.019780
0.019409
0.017746
0.016629
0.015506
0.014590
0.014049
0.014025
0.014486
0.016375
0.014153
0.012125
0.010469
0.009382
0.009039
0.009342
0.010089
0.010946
0.011701
0.012216
0.012341
0.012115
0.011457
0.010413
0.009073
0.007407
0.005742
0.004198
0.003376
0.004036
0.005557
0.007347
0.009051
0.010354
0.011471
0.012174
0.012426
0.012119
0.011662
0.010884
0.010025
0.009268
0.008977
0.009343
0.010484
0.012191
0.014274
0.016523
0.012952
0.010399
0.007931
0.005792
0.004788
0.005314
0.006810
0.008614
0.010219
0.011377
0.012263
0.012567
0.012437
0.011884
0.010772
0.009210
0.007390
0.005300
0.003173
0.001789
0.003017
0.005147
0.007283
0.009197
0.010798
0.011917
0.012501
0.012709
0.012338
0.011472
0.010159
0.008563
0.006811
0.005266
0.004684
0.005750
0.007888
0.010377
0.012936
0.016409
0.014195
0.012143
0.010437
0.009329
0.008943
0.009174
0.010016
0.010869
0.011609
0.012106
0.012251
0.012060
0.011452
0.010418
0.009077
0.007465
0.005796
0.004192
0.003443
0.004122
0.005683
0.007489
0.009148
0.010559
0.011550
0.012199
0.012436
0.012229
0.011669
0.010876
0.009971
0.009255
0.008997
0.009321
0.010386
0.012079
0.014117
0.016341
0.012931
0.010380
0.007915
0.005784
0.004668
0.005207
0.006708
0.008528
0.010135
0.011403
0.012301
0.012692
0.012539
0.011871
0.010841
0.009252
0.007380
0.005277
0.003068
0.001621
0.002970
0.005164
0.007329
0.009242
0.010774
0.011914
0.012589
0.012749
0.012359
0.011550
0.010242
0.008632
0.006917
0.005405
0.004878
0.005920
0.008003
0.010521
0.013078
0.015959
0.016813
0.017458
0.017753
0.017626
0.016340
0.015467
0.014778
0.014381
0.014548
0.017778
0.017918
0.017643
0.016940
0.016077
0.016363
0.015467
0.014693
0.014320
0.014480
0.016010
0.016921
0.017592
0.017911
0.017828
0.014620
0.014461
0.014835
0.015588
0.016508
0.017636
0.017796
0.017536
0.016919
0.016121
0.016265
0.015391
0.014650
0.014329
0.014475
0.014689
0.012073
0.009565
0.007444
0.006180
0.006212
0.007316
0.008847
0.010313
0.011470
0.012277
0.012560
0.012489
0.011772
0.010694
0.009067
0.007096
0.004814
0.002449
0.001072
0.002905
0.005185
0.007235
0.009124
0.010676
0.011802
0.012463
0.012638
0.012335
0.011580
0.010408
0.009004
0.007485
0.006347
0.006258
0.007448
0.009496
0.011959
0.014525
0.012623
0.009922
0.007143
0.004609
0.003172
0.003950
0.005950
0.008014
0.009822
0.011231
0.012140
0.012582
0.012514
0.011914
0.010753
0.009233
0.007246
0.005033
0.002654
0.000619
0.002514
0.004921
0.007240
0.009217
0.010824
0.011920
0.012609
0.012741
0.012328
0.011372
0.009950
0.008174
0.006062
0.004039
0.003177
0.004637
0.007165
0.009911
0.012654
0.014478
0.011906
0.009482
0.007460
0.006260
0.006328
0.007400
0.008834
0.010289
0.011547
0.012360
0.012682
0.012596
0.011930
0.010834
0.009246
0.007258
0.005018
0.002662
0.000903
0.002730
0.005087
0.007298
0.009140
0.010648
0.011719
0.012391
0.012553
0.012219
0.011445
0.010239
0.008737
0.007303
0.006248
0.006211
0.007441
0.009524
0.012009
0.014618
0.012544
0.009817
0.007032
0.004555
0.003131
0.004033
0.006063
0.008096
0.009888
0.011310
0.012171
0.012548
0.012404
0.011785
0.010728
0.009268
0.007333
0.005161
0.002754
0.000493
0.002411
0.004889
0.007167
0.009146
0.010730
0.011889
0.012489
0.012633
0.012244
0.011277
0.009905
0.008116
0.006075
0.004029
0.003194
0.004542
0.007071
0.009825
0.012557
0.012439
0.005249
0.012410
0.011456
0.009979
0.007707
0.012514
0.012462
0.011105
0.012085
0.007500
0.009042
0.010432
0.007630
0.006565
0.008187
0.009619
0.008285
0.006979
0.006413
0.012508
0.011889
0.014119
0.014061
0.015406
0.015269
0.012661
0.011664
0.011317
0.012280
0.010226
0.010127
0.007111
0.005911
0.003028
0.011343
0.012576
0.012271
0.012213
0.006854
0.005315
0.012564
0.011181
0.002938
0.010651
0.010457
0.005819
0.012550
0.003115
0.012702
0.006966
0.012730
0.009135
0.005795
0.012501
0.008699
0.003172
0.007766
0.011563
0.011438
0.008175
0.008130
0.001046
0.000760
0.006865
0.007959
0.007053
0.008477
0.014625
0.010379
0.013631
0.015084
0.014086
0.013483
0.009430
0.012898
0.011305
0.011757
0.013510
0.003737
0.008805
0.010606
0.010762
0.009247
0.009509
0.008623
0.011524
0.015893
0.015318
0.006065
0.006905
0.006298
0.007091
0.007154
0.007876
0.008894
0.009148
0.012705
0.012710
0.007591
0.005832
0.011679
0.011724
0.008851
0.007749
0.001821
0.001787
0.007112
0.007076
0.011884
0.011767
0.012688
0.012743
0.009007
0.008418
0.008829
0.008813
0.004471
0.004473
0.002340
0.002157
0.004327
0.004199
0.008698
0.008661
0.010386
0.010554
0.006942
0.004515
0.005205
0.006795
0.007384
0.007755
0.011513
0.011640
0.012387
0.012352
0.008685
0.009190
0.010307
0.010549
0.011036
0.010887
0.006835
0.007829
0.012384
0.012278
0.012598
0.012566
0.012373
0.012386
0.009742
0.009645
0.012625
0.012650
0.011513
0.011566
0.005243
0.005198
0.012413
0.012407
0.005829
0.006940
0.006623
0.004561
0.006621
0.006638
0.010478
0.010384
0.006852
0.006013
0.008490
0.008782
0.006518
0.006446
0.010164
0.009850
0.012372
0.012338
0.012057
0.012069
0.010392
0.010348
0.010280
0.010258
0.007678
0.006520
0.011345
0.011368
0.012696
0.012701
0.007754
0.007314
0.008785
0.006692
0.008345
0.006449
0.008711
0.013954
0.015787
0.015466
0.011441
0.011508
0.011062
0.012255
0.012258
0.006847
0.001255
0.012168
0.012105
0.012079
0.012553
0.012582
0.004415
0.006770
0.006931
0.010726
0.008763
0.010782
0.010043
0.009496
0.005952
0.010206
0.010202
0.012657
0.003151
0.006906
0.006811
0.011346
0.011341
0.006692
0.005132
0.009243
0.009213
0.001594
0.001676
0.008054
0.008043
0.012303
0.012336
0.005782
0.005809
0.003445
0.003409
0.003661
0.003706
0.013250
0.014932
0.001968
0.002047
0.012256
0.003691
0.012557
0.008891
0.006364
0.011902
0.009022
0.006734
0.011043
0.012567
0.007876
0.002527
0.007356
0.011260
0.005082
0.002639
0.007224
0.002638
0.003037
0.009252
0.000956
0.011575
0.011972
0.010983
0.014041
0.011920
0.013525
0.012585
0.008560
0.009895
0.012520
0.010915
0.005813
0.012437
0.004057
0.011279
0.007708
0.011966
0.011079
0.012162
0.010877
0.010563
0.007622
0.012129
0.009436
0.008186
0.011956
0.007592
0.009332
0.005155
0.001986
0.005720
0.005744
0.001355
0.004569
0.002397
0.005498
0.010639
0.008904
0.002062
0.011627
0.005036
0.007382
0.010571
0.009037
0.002039
0.011794
0.000352
0.000847
0.006201
0.008129
0.010355
0.006603
0.009273
0.007953
0.010738
0.012314
0.004881
0.010624
0.012495
0.012413
0.010508
0.005783
0.007995
0.009381
0.007112
0.009775
0.009732
0.003480
0.004548
0.005185
0.005204
0.002392
0.002421
0.003751
0.005436
0.010172
0.010300
0.012716
0.012724
0.008654
0.008860
0.010244
0.012701
0.012655
0.012582
0.012677
0.009517
0.010020
0.011918
0.011847
0.012966
0.002766
0.005542
0.004381
0.004271
0.008234
0.009064
0.012499
0.009113
0.009074
0.012644
0.012520
0.012409
0.008409
0.008136
0.005101
0.001633
0.008982
0.008831
0.007586
0.006661
0.003592
0.000581
0.000486
0.000649
0.006597
0.006581
0.012038
0.012252
0.008624
0.008548
0.011912
0.011907
0.010480
0.010654
0.007190
0.007164
0.011306
0.011413
0.001272
0.001160
0.006260
0.006741
0.000816
0.003551
0.011792
0.011706
0.003687
0.003762
0.010475
0.010598
0.001584
0.001851
0.005557
0.007001
0.012439
0.012490
0.002591
0.002683
0.006714
0.006838
0.010433
0.009294
0.009384
0.010481
0.004627
0.003024
0.004596
0.006752
0.004478
0.007341
0.006600
0.005579
0.015061
0.012904
0.014775
0.013083
0.012702
0.001473
0.012167
0.012243
0.010538
0.010334
0.012231
0.012380
0.005124
0.008896
0.010996
0.011213
0.004448
0.003210
0.007689
0.007734
0.009504
0.009512
0.012623
0.012638
0.006526
0.005863
0.002201
0.005761
0.008271
0.010380
0.003323
0.006043
0.007423
0.004822
0.004766
0.011103
0.011126
0.012680
0.012632
0.012620
0.011927
0.012498
0.012568
0.012379
0.012555
0.006815
0.003819
0.011872
0.011524
0.002072
0.004565
0.011135
0.010548
0.011748
0.012403
0.012643
0.005265
0.007600
0.011155
0.012009
0.007747
0.012491
0.005847
0.009580
0.012416
0.011192
0.007184
0.009881
0.007928
0.006478
0.006967
0.007280
0.006476
0.011270
0.001118
0.013448
0.013703
0.012632
0.012565
0.015673
0.015996
0.014425
0.014576
0.011653
0.011786
0.011279
0.011292
0.005089
0.002675
0.012232
0.010248
0.012346
0.002785
0.010570
0.010228
0.011467
0.002270
0.003975
0.009156
0.008672
0.005697
0.009075
0.002256
0.004033
0.006878
0.008981
0.006936
0.012491
0.007723
0.012340
0.006775
0.005952
0.007617
0.007938
0.012415
0.004986
0.012330
0.007677
0.007675
0.006803
0.005351
0.011621
0.011502
0.000951
0.001310
0.009013
0.013101
0.013169
0.010835
0.011107
0.008865
0.008875
0.014191
0.012301
0.013431
0.011735
0.003008
0.009159
0.011153
0.005829
0.007583
0.006479
0.006571
0.001470
0.001452
0.006628
0.006426
0.007040
0.001137
0.001323
0.002602
0.004550
0.004606
0.004678
0.004642
0.012021
0.012207
0.012600
0.012606
0.012294
0.012257
0.009271
0.009784
0.015107
0.015679
0.012626
0.012595
0.011179
0.007764
0.012423
0.012450
0.011340
0.008663
0.009012
0.006860
0.010864
0.010049
0.002502
0.002701
0.011974
0.011846
0.003963
0.004052
0.010833
0.010999
0.012483
0.012503
0.010480
0.010471
0.006751
0.006701
0.011620
0.011562
0.007576
0.007659
0.004508
0.006813
0.010833
0.011169
0.007890
0.008237
0.003921
0.003982
0.012362
0.012317
0.012280
0.012314
0.004500
0.006711
0.006011
0.005711
0.005792
0.011949
0.012090
0.012522
0.012603
0.008609
0.008728
0.006109
0.007661
0.010107
0.010197
0.006805
0.006844
0.011873
0.011832
0.008691
0.008738
0.005852
0.006863
0.007344
0.006546
0.006530
0.009704
0.011757
0.011796
0.007927
0.006127
0.007570
0.008777
0.011654
0.011709
0.008848
0.009710
0.008905
0.008225
0.007192
0.007545
0.009848
0.009193
0.007310
0.012027
0.015732
0.016043
0.013965
0.014046
0.005002
0.005107
0.009388
0.011301
0.005863
0.005876
0.001727
0.001624
0.012256
0.012360
0.012235
0.012203
0.011176
0.010995
0.010430
0.010372
0.010257
0.008615
0.008598
0.010343
0.009683
0.012544
0.008603
0.007573
0.009794
0.009887
0.015494
0.015128
0.008658
0.009946
0.009729
0.004184
0.012530
0.009252
0.011994
0.006974
0.012506
0.008124
0.007450
0.003723
0.008915
0.011756
0.006404
0.008975
0.012605
0.006763
0.012449
0.010479
0.012260
0.003675
0.011961
0.010522
0.009139
0.002125
0.004575
0.004599
0.008486
0.002298
0.003305
0.000953
0.011287
0.009987
0.009980
0.011317
0.011295
0.012375
0.012516
0.014097
0.013935
0.005392
0.003658
0.012575
0.011052
0.012590
0.011167
0.007620
0.007326
0.010584
0.012093
0.003712
0.004448
0.000753
0.012189
0.010497
0.007319
0.005704
0.012377
0.009162
0.004757
0.012206
0.002392
0.009084
0.005367
0.005373
0.011805
0.011716
0.010500
0.008955
0.002183
0.012543
0.005453
0.007778
0.010496
0.008924
0.002053
0.012526
0.000413
0.000760
0.006411
0.008341
0.009656
0.010248
0.007638
0.006219
0.005300
0.012944
0.010318
0.011052
0.013027
0.007045
0.005753
0.009774
0.009785
0.005077
0.005069
0.011797
0.011857
0.002451
0.002501
0.000998
0.008951
0.009157
0.012645
0.012669
0.002477
0.005888
0.001881
0.012606
0.012681
0.012712
0.012588
0.012948
0.010028
0.010281
0.006702
0.007049
0.011802
0.011701
0.003350
0.005542
0.007792
0.006870
0.008317
0.005114
0.007690
0.007983
0.008532
0.009092
0.011070
0.011150
0.005058
0.005089
0.012573
0.012585
0.006516
0.007471
0.009052
0.009023
0.012572
0.012574
0.006264
0.005527
0.009011
0.008535
0.012418
0.012407
0.004298
0.006057
0.005439
0.002861
0.006950
0.005704
0.011514
0.011340
0.008301
0.007966
0.000455
0.000680
0.009193
0.009121
0.007273
0.007250
0.012347
0.012180
0.011457
0.011576
0.010688
0.010625
0.007070
0.007087
0.011443
0.011531
0.010589
0.010527
0.012400
0.012380
0.001278
0.000938
0.012466
0.012421
0.004009
0.002583
0.003798
0.003682
0.002313
0.002316
0.002384
0.002356
0.006843
0.006817
0.002890
0.004509
0.010401
0.009410
0.009333
0.005350
0.002393
0.006805
0.011338
0.004496
0.008184
0.010327
0.012967
0.013097
0.015086
0.014982
0.009716
0.003359
0.009862
0.001521
0.012088
0.012106
0.010219
0.010020
0.007119
0.011821
0.011940
0.007735
0.007739
0.012100
0.012177
0.011140
0.011125
0.005152
0.001892
0.010519
0.010645
0.003968
0.000541
0.003162
0.012632
0.004814
0.004837
0.010594
0.010294
0.004885
0.005585
0.012292
0.012890
0.012369
0.012565
0.012448
0.012510
0.012095
0.011871
0.011521
0.011665
0.012567
0.012504
0.011361
0.011451
0.007648
0.006952
0.008053
0.008256
0.006129
0.009990
0.004166
0.011730
0.009123
0.006424
0.004199
0.011986
0.010809
0.012706
0.012536
0.001453
0.006084
0.003555
0.008283
0.011511
0.010276
0.011169
0.006140
0.009502
0.003611
0.006907
0.007223
0.010281
0.010941
0.012687
0.011717
0.004863
0.008751
0.003917
0.007893
0.002828
0.007769
0.003685
0.002824
0.011785
0.011733
0.004657
0.005109
0.009602
0.009397
0.011373
0.011400
0.006822
0.003432
0.009604
0.008714
0.006105
0.008174
0.002580
0.000522
0.010547
0.010014
0.003567
0.002706
0.008585
0.009736
0.008284
0.006688
0.010677
0.010279
0.012295
0.012441
0.007374
0.007419
0.012007
0.012307
0.011044
0.011297
0.012413
0.012657
0.005683
0.005422
0.011625
0.011360
0.009034
0.008973
0.012598
0.012830
0.012287
0.012391
0.008483
0.006208
0.010469
0.008849
0.006642
0.007707
0.010372
0.009344
0.005055
0.003429
0.001632
0.004687
0.003593
0.009003
0.005578
0.005706
0.006708
0.005681
0.002791
0.002149
0.003067
0.001099
0.012787
0.012480
0.003405
0.001919
0.007179
0.008389
0.004762
0.008285
0.004326
0.003395
0.003229
0.002769
0.012700
0.012569
0.010065
0.009700
0.012019
0.012173
0.004723
0.004904
0.011676
0.011956
0.011064
0.011192
0.010976
0.010886
0.007351
0.007339
0.009533
0.010384
0.004773
0.004204
0.009348
0.009233
0.012107
0.011893
0.007962
0.006440
0.007929
0.006193
0.010723
0.009983
0.011567
0.011952
0.008256
0.009650
0.011917
0.011904
0.010299
0.010852
0.011042
0.011415
0.010970
0.010741
0.006751
0.006594
0.012424
0.012754
0.008382
0.008521
0.012078
0.012160
0.012371
0.012293
0.008484
0.008443
0.009380
0.009448
0.010153
0.008928
0.008241
0.008803
0.012362
0.012685
0.012542
0.012682
0.010940
0.010770
0.010032
0.010299
0.012285
0.012619
0.012788
0.012616
0.005752
0.002738
0.003016
0.008111
0.009404
0.004767
0.005925
0.002544
0.008740
0.002778
0.000567
0.006749
0.006807
0.009046
0.007138
0.005696
0.007604
0.006160
0.003573
0.002044
0.005930
0.010624
0.011179
0.013025
0.010318
0.014624
0.012245
0.013561
0.009416
0.004236
0.003738
0.000711
0.001855
0.001712
0.004844
0.008074
0.003083
0.012387
0.001524
0.015268
0.011702
0.009215
0.004091
0.011599
0.012692
0.012510
0.012813
0.004605
0.007801
0.006899
0.009017
0.012412
0.012663
0.009577
0.012256
0.006779
0.011249
0.011315
0.011678
0.012332
0.012721
0.012110
0.012469
0.008937
0.011589
0.007860
0.007868
0.012682
0.006441
0.001544
0.013568
0.008645
0.009361
0.009537
0.013314
0.014315
0.011102
0.010316
0.010144
0.004193
0.006911
0.003814
0.005148
0.011570
0.010716
0.006853
0.002634
0.008555
0.005192
0.009622
0.009852
0.010619
0.012682
0.006584
0.012357
0.012570
0.003281
0.004998
0.004517
0.009347
0.012771
0.012568
0.011988
0.010347
0.012656
0.012722
0.012736
0.012446
0.005367
0.013048
0.008333
0.016567
0.016014
0.013467
0.008753
0.009528
0.015010
0.009988
0.009402
0.012126
0.005002
0.011210
0.006638
0.008394
0.012182
0.011828
0.010881
0.004710
0.012158
0.003773
0.012268
0.008611
0.009972
0.006755
0.011764
0.010827
0.011519
0.010161
0.009654
0.009631
0.017802
0.015267
0.015973
0.012912
0.011429
0.012275
0.012105
0.011687
0.011633
0.010782
0.010608
0.009798
0.008340
0.009951
0.007706
0.009953
0.008498
0.011055
0.010683
0.008030
0.008081
0.004806
0.004300
0.009459
0.009392
0.011648
0.011786
0.009722
0.010497
0.010473
0.008369
0.010787
0.008046
0.007625
0.007803
0.009952
0.008566
0.011450
0.011743
0.002894
0.003841
0.010254
0.009916
0.010495
0.009742
0.006344
0.006132
0.011878
0.012179
0.004655
0.004046
0.012354
0.012074
0.006482
0.006239
0.012322
0.012525
0.012206
0.012342
0.010907
0.011318
0.015640
0.013401
0.011458
0.009570
0.009178
0.011238
0.010116
0.009187
0.007680
0.007309
0.010299
0.012050
0.011924
0.009107
0.010560
0.009512
0.006958
0.012268
0.012382
0.012052
0.011852
0.003967
0.003620
0.011730
0.011436
0.007873
0.007915
0.002345
0.003735
0.011930
0.012269
0.003003
0.004148
0.012626
0.012331
0.012501
0.012032
0.007432
0.007570
0.008720
0.008717
0.010962
0.010343
0.010409
0.009444
0.011466
0.011186
0.009947
0.008878
0.012337
0.012145
0.012252
0.012103
0.012015
0.011948
0.010170
0.009524
0.010638
0.010375
0.012536
0.012212
0.012155
0.012193
0.010469
0.010397
0.009548
0.006813
0.005461
0.005309
0.009122
0.009226
0.011484
0.011364
0.011891
0.011924
0.004195
0.003867
0.011830
0.011369
0.007096
0.006876
0.005568
0.005447
0.003375
0.004315
0.010974
0.011168
0.010686
0.009849
0.011062
0.011419
0.005605
0.006011
0.012590
0.012376
0.010525
0.010299
0.010221
0.006441
0.007319
0.009986
0.011447
0.017349
0.009925
0.008524
0.009728
0.008913
0.009639
0.011646
0.012837
0.010347
0.014995
0.012125
0.009640
0.010847
0.007496
0.010086
0.014955
0.013294
0.015294
0.011777
0.010002
0.012045
0.010535
0.007744
0.015374
0.003708
0.016661
0.014539
0.017768
0.008606
0.009884
0.011195
0.011350
0.012341
0.006553
0.009299
0.009253
0.009560
0.005990
0.008192
0.011764
0.012065
0.010641
0.013405
0.010484
0.006674
0.006565
0.008101
0.017813
0.011023
0.011861
0.009843
0.009152
0.012538
0.012340
0.010617
0.012465
0.012149
0.010292
0.012279
0.012412
0.009775
0.010266
0.007257
0.009773
0.007977
0.012146
0.012093
0.009808
0.009242
0.010518
0.014157
0.009877
0.004883
0.004111
0.011606
0.011578
0.011716
0.012755
0.013477
0.015506
0.009483
0.009293
0.013946
0.010035
0.009123
0.005333
0.004775
0.016425
0.011054
0.011381
0.012812
0.010938
0.010644
0.010649
0.013849
0.014861
0.011616
0.013583
0.017470
0.012082
0.012018
0.010635
0.010236
0.008902
0.009043
0.016106
0.012058
0.011675
0.014263
0.016054
0.017723
0.014751
0.017235
0.012350
0.015283
0.016526
0.013492
0.014647
0.016765
0.016747
0.013990
0.008514
0.008064
0.006779
0.010334
0.009707
0.012481
0.011371
0.012309
0.012688
0.012361
0.004004
0.002239
0.012748
0.007855
0.005821
0.011865
0.007152
0.003386
0.004847
0.008561
0.011071
0.011041
0.014653
0.004857
0.008752
0.002399
0.007264
0.004754
0.007156
0.011894
0.012176
0.009614
0.009778
0.010218
0.009533
0.012492
0.012733
0.002291
0.007513
0.007499
0.007462
0.003017
0.007002
0.003141
0.006809
0.012254
0.012334
0.004686
0.005209
0.007538
0.009798
0.007664
0.009685
0.011180
0.011462
0.003174
0.003884
0.012802
0.012542
0.005423
0.005692
0.012407
0.012388
0.011526
0.011694
0.007806
0.011214
0.013213
0.010818
0.006433
0.010892
0.009497
0.007087
0.008938
0.012938
0.007763
0.011900
0.013590
0.011206
0.004822
0.003232
0.004576
0.005259
0.001266
0.002855
0.005711
0.005686
0.006837
0.012785
0.012636
0.006934
0.008932
0.010944
0.011012
0.001749
0.001004
0.006228
0.006100
0.008660
0.008695
0.009873
0.010635
0.008698
0.008663
0.011359
0.010967
0.000817
0.002863
0.005017
0.005519
0.006562
0.006828
0.008672
0.008646
0.007486
0.007391
0.008723
0.008788
0.005303
0.008229
0.010022
0.010532
0.010594
0.010702
0.008756
0.008168
0.012433
0.012282
0.010249
0.010416
0.010658
0.010662
0.004656
0.004851
0.003310
0.003667
0.012695
0.012384
0.012678
0.012577
0.012202
0.012232
0.010213
0.010492
0.011243
0.011577
0.011750
0.011910
0.011844
0.011988
0.012564
0.012666
0.011311
0.011377
0.007780
0.009348
0.002777
0.003836
0.011443
0.011834
0.012059
0.011990
0.005787
0.006109
0.012253
0.012624
0.012652
0.012474
0.011989
0.004444
0.005250
0.002699
0.005399
0.007266
0.004886
0.009833
0.005346
0.002154
0.015344
0.012363
0.001138
0.006690
0.003079
0.007933
0.009397
0.005603
0.000385
0.006432
0.010584
0.014188
0.008076
0.006205
0.008983
0.010183
0.008658
0.003330
0.001641
0.008758
0.012146
0.013109
0.011626
0.009654
0.011154
0.009436
0.016622
0.013199