# vtk DataFile Version 2.0
Unstructured Grid Example
ASCII
DATASET UNSTRUCTURED_GRID
POINTS 2674 float
0.029862 0.434288 -0.050727 
0.532899 -0.059251 0.025359 
0.029956 -0.566103 0.050445 
-0.466175 -0.058706 -0.025725 
-0.030118 0.566753 3.949319 
0.465479 0.058945 4.026324 
-0.030251 -0.434685 4.050683 
-0.533205 0.058965 3.974329 
0.030405 0.308835 -0.035239 
0.408129 -0.060948 0.017727 
0.031016 -0.441577 0.034994 
-0.340932 -0.060079 -0.017799 
-0.030840 0.442161 3.964925 
0.340201 0.060417 4.018028 
-0.030946 -0.309277 4.035188 
-0.408447 0.060495 3.982240 
0.068713 0.556088 3.955399 
0.163179 0.526288 3.963093 
0.249737 0.478283 3.972228 
0.324828 0.414495 3.982600 
0.385905 0.337287 3.993809 
0.430511 0.250009 4.004972 
0.457210 0.156050 4.015763 
0.454786 -0.037587 4.035691 
0.425658 -0.129982 4.043628 
0.379543 -0.215022 4.049924 
0.317980 -0.289603 4.054361 
0.243287 -0.350719 4.056648 
0.158199 -0.396210 4.056777 
0.065953 -0.424718 4.054828 
-0.126563 -0.426079 4.044698 
-0.219689 -0.398708 4.036758 
-0.305832 -0.354018 4.027731 
-0.381796 -0.292936 4.017590 
-0.444682 -0.218212 4.006753 
-0.492233 -0.132518 3.995661 
-0.522031 -0.038957 3.984585 
-0.524801 0.157446 3.964905 
-0.497284 0.252732 3.956957 
-0.451407 0.340859 3.950541 
-0.388840 0.418177 3.946018 
-0.312216 0.481598 3.943598 
-0.224465 0.528754 3.943390 
-0.129116 0.557432 3.945237 
-0.455569 0.037877 -0.035148 
-0.426462 0.130277 -0.043071 
-0.380223 0.215347 -0.049467 
-0.318516 0.289791 -0.054001 
-0.243724 0.350765 -0.056393 
-0.158578 0.396197 -0.056623 
-0.066295 0.424473 -0.054774 
0.126243 0.425341 -0.044757 
0.219234 0.398042 -0.037104 
0.305347 0.353214 -0.028066 
0.381427 0.292479 -0.017915 
0.444419 0.217787 -0.006855 
0.491890 0.132120 0.004261 
0.521791 0.038650 0.015041 
0.524625 -0.157700 0.034832 
0.497363 -0.253037 0.042830 
0.451502 -0.341104 0.049327 
0.389007 -0.418371 0.053856 
0.312240 -0.481830 0.056260 
0.224416 -0.528675 0.056454 
0.129013 -0.557086 0.054516 
-0.068702 -0.555385 0.044436 
-0.163186 -0.525384 0.036821 
-0.249678 -0.477443 0.027747 
-0.325006 -0.413825 0.017454 
-0.386072 -0.336800 0.006605 
-0.431018 -0.249782 -0.004452 
-0.457879 -0.155815 -0.015254 
0.024556 0.446552 0.049734 
0.018597 0.459021 0.150533 
0.012342 0.471777 0.251693 
0.005905 0.484577 0.353372 
-0.000429 0.497204 0.455759 
-0.006356 0.509230 0.558789 
-0.011991 0.520462 0.662774 
-0.017166 0.530210 0.767361 
-0.021285 0.538268 0.872479 
-0.024205 0.544317 0.977488 
-0.026393 0.548300 1.082620 
-0.027156 0.550352 1.188715 
-0.027113 0.550056 1.293985 
-0.025855 0.547552 1.399006 
-0.023297 0.543153 1.503979 
-0.020046 0.536911 1.608569 
-0.015823 0.529004 1.711540 
-0.011101 0.520578 1.813762 
-0.006046 0.511045 1.915324 
-0.000462 0.501022 2.015910 
0.004932 0.490758 2.115935 
0.010313 0.480715 2.214535 
0.015123 0.471236 2.312211 
0.019440 0.462867 2.408492 
0.023094 0.457083 2.504250 
0.025604 0.452235 2.599307 
0.027170 0.449621 2.694271 
0.027488 0.449354 2.788737 
0.026752 0.452100 2.883596 
0.024618 0.456030 2.977709 
0.021188 0.462057 3.072503 
0.017225 0.470094 3.167556 
0.012466 0.479896 3.263150 
0.006671 0.490976 3.359093 
0.000538 0.503183 3.455973 
-0.005942 0.515900 3.553460 
-0.012413 0.528885 3.651735 
-0.018756 0.541745 3.750461 
-0.024715 0.554399 3.849751 
-0.472393 -0.048294 0.074496 
-0.478779 -0.036501 0.174872 
-0.485287 -0.024119 0.275378 
-0.491914 -0.011377 0.376463 
-0.498235 0.001125 0.477473 
-0.504265 0.013050 0.578976 
-0.510065 0.024126 0.681235 
-0.515139 0.033877 0.783271 
-0.519230 0.041912 0.885681 
-0.522051 0.047718 0.988743 
-0.524105 0.051973 1.091322 
-0.525000 0.053566 1.194388 
-0.524946 0.053122 1.296946 
-0.524221 0.050654 1.399141 
-0.522089 0.045823 1.501739 
-0.518748 0.039016 1.604494 
-0.514935 0.030962 1.706126 
-0.510371 0.021500 1.807565 
-0.505349 0.011325 1.908244 
-0.500198 0.000284 2.008447 
-0.494963 -0.010422 2.108318 
-0.489725 -0.020751 2.207428 
-0.485026 -0.030356 2.306193 
-0.480957 -0.038823 2.404303 
-0.477639 -0.045817 2.501983 
-0.475670 -0.050781 2.599582 
-0.474594 -0.053233 2.696862 
-0.474154 -0.053910 2.794391 
-0.475355 -0.052138 2.891478 
-0.477476 -0.048015 2.988809 
-0.480671 -0.041738 3.086274 
-0.484545 -0.033597 3.183581 
-0.489627 -0.023948 3.281170 
-0.495280 -0.012813 3.379198 
-0.501171 -0.000921 3.477917 
-0.507508 0.011749 3.576683 
-0.514061 0.024416 3.675603 
-0.520501 0.036803 3.774915 
-0.526990 0.048580 3.874550 
0.024652 -0.553893 0.149993 
0.018744 -0.541378 0.249348 
0.012475 -0.528568 0.348169 
0.005999 -0.515761 0.446342 
-0.000344 -0.503182 0.543965 
-0.006351 -0.491259 0.640850 
-0.012083 -0.480228 0.736634 
-0.017125 -0.470582 0.832877 
-0.021102 -0.462441 0.927952 
-0.024269 -0.456172 1.022333 
-0.026259 -0.452046 1.116820 
-0.027319 -0.450222 1.211244 
-0.027081 -0.450191 1.305744 
-0.025670 -0.452375 1.400846 
-0.023423 -0.456863 1.496319 
-0.020110 -0.462917 1.592257 
-0.015761 -0.470528 1.688722 
-0.010792 -0.479343 1.785617 
-0.005482 -0.489429 1.884173 
-0.000029 -0.499806 1.983731 
0.005482 -0.510015 2.084222 
0.010734 -0.520051 2.185728 
0.015762 -0.529314 2.287983 
0.019997 -0.537403 2.391658 
0.023532 -0.543785 2.495728 
0.025824 -0.548074 2.600396 
0.027423 -0.550377 2.705724 
0.027864 -0.550491 2.811269 
0.026720 -0.548427 2.916722 
0.024574 -0.544085 3.022195 
0.021381 -0.537697 3.127615 
0.017302 -0.529419 3.232480 
0.012336 -0.519863 3.336951 
0.006700 -0.509029 3.440995 
0.000580 -0.497110 3.543945 
-0.005857 -0.484687 3.646252 
-0.012414 -0.472066 3.748199 
-0.018801 -0.459383 3.849458 
-0.024824 -0.446912 3.950272 
0.526754 -0.048849 0.125116 
0.520631 -0.037111 0.224553 
0.514266 -0.024712 0.324174 
0.507780 -0.011978 0.423298 
0.501461 0.000603 0.522000 
0.495402 0.012630 0.620605 
0.489904 0.023657 0.718524 
0.484753 0.033562 0.816275 
0.480788 0.041648 0.913777 
0.477701 0.047769 1.011118 
0.475256 0.051937 1.108277 
0.474285 0.053896 1.205492 
0.474257 0.053294 1.302700 
0.475465 0.050442 1.400159 
0.477522 0.045963 1.497555 
0.481037 0.039133 1.595502 
0.485084 0.030937 1.693967 
0.489414 0.021425 1.792894 
0.494324 0.010998 1.892450 
0.499337 0.000209 1.992374 
0.504404 -0.010672 2.092025 
0.509364 -0.021191 2.192348 
0.514446 -0.030821 2.293622 
0.518555 -0.039322 2.395950 
0.521894 -0.045913 2.498000 
0.524466 -0.050696 2.600370 
0.525784 -0.053526 2.702837 
0.526098 -0.053973 2.805866 
0.524840 -0.052151 2.908571 
0.522954 -0.048109 3.011697 
0.519558 -0.041886 3.114313 
0.515072 -0.033851 3.217038 
0.510289 -0.024076 3.319558 
0.504338 -0.013062 3.421514 
0.498095 -0.001078 3.522946 
0.491567 0.011560 3.624034 
0.485098 0.024236 3.724910 
0.478441 0.036682 3.825711 
0.471891 0.048437 3.926119 
-0.327032 0.035798 -0.026364 
-0.289232 0.124662 -0.033174 
-0.230115 0.200660 -0.037617 
-0.153687 0.259043 -0.039682 
-0.064885 0.295901 -0.038761 
0.126120 0.297037 -0.029446 
0.216037 0.261074 -0.021702 
0.293913 0.202781 -0.012539 
0.354660 0.126520 -0.002181 
0.393614 0.036424 0.007977 
0.129782 -0.429313 0.038526 
0.221764 -0.391380 0.039443 
0.300415 -0.330806 0.037389 
0.360253 -0.251329 0.032758 
0.396939 -0.159323 0.026228 
-0.067340 -0.427338 0.029234 
-0.158260 -0.388153 0.021610 
-0.235423 -0.326689 0.012246 
-0.293878 -0.247672 0.001997 
-0.329834 -0.156776 -0.008106 
-0.397038 0.158848 3.973692 
-0.360198 0.251081 3.966926 
-0.300356 0.330525 3.962600 
-0.221532 0.391424 3.960505 
-0.129573 0.429672 3.961413 
0.329172 0.157132 4.008386 
0.293571 0.248262 3.997956 
0.235307 0.327424 3.987942 
0.158196 0.388872 3.978651 
0.067414 0.428160 3.970721 
0.064322 -0.296208 4.038914 
0.153160 -0.259031 4.039632 
0.229455 -0.200612 4.037725 
0.288439 -0.124554 4.033307 
0.326275 -0.035495 4.026828 
-0.126610 -0.297658 4.029400 
-0.216554 -0.261707 4.021648 
-0.294325 -0.203574 4.012166 
-0.354938 -0.126927 4.002021 
-0.393882 -0.036978 3.991865 
-0.025393 0.429596 3.865479 
-0.019375 0.416796 3.766354 
-0.012934 0.403649 3.667524 
-0.006436 0.390284 3.568982 
0.000069 0.377207 3.470883 
0.006119 0.364851 3.373149 
0.011685 0.353443 3.275636 
0.016728 0.343509 3.178183 
0.020996 0.335431 3.080823 
0.023905 0.329102 2.983894 
0.025999 0.324706 2.887377 
0.026979 0.323029 2.790347 
0.026646 0.322786 2.693234 
0.024777 0.325371 2.595900 
0.022703 0.329890 2.498344 
0.019364 0.336789 2.400546 
0.014945 0.345040 2.301790 
0.010104 0.354870 2.203193 
0.004726 0.365305 2.104191 
-0.000824 0.376011 2.004896 
-0.006193 0.386347 1.904614 
-0.011355 0.396321 1.804099 
-0.015902 0.405143 1.702675 
-0.020101 0.413138 1.600197 
-0.023078 0.419817 1.498208 
-0.025367 0.424472 1.395653 
-0.026674 0.427014 1.292851 
-0.026930 0.427337 1.189922 
-0.025906 0.425507 1.086786 
-0.023968 0.421278 0.983338 
-0.020848 0.415082 0.880580 
-0.016847 0.406948 0.777514 
-0.011996 0.396987 0.675032 
-0.006352 0.385589 0.572670 
-0.000116 0.373157 0.470491 
0.006282 0.360214 0.368689 
0.012749 0.347091 0.267262 
0.019038 0.334014 0.166082 
0.025019 0.321345 0.065280 
0.401900 -0.050257 0.117543 
0.395541 -0.038405 0.217349 
0.389099 -0.025822 0.316539 
0.382555 -0.013045 0.415717 
0.376040 -0.000586 0.514941 
0.369817 0.011558 0.613706 
0.363980 0.022675 0.712444 
0.359070 0.032495 0.811135 
0.354803 0.040687 0.909497 
0.351544 0.046941 1.007890 
0.349471 0.050981 1.106300 
0.348254 0.052894 1.204602 
0.348174 0.052590 1.303275 
0.349423 0.050109 1.401939 
0.351850 0.045215 1.501082 
0.355102 0.038823 1.599965 
0.359431 0.030460 1.698617 
0.364097 0.021035 1.797969 
0.369168 0.010739 1.897191 
0.374273 0.000154 1.997171 
0.379414 -0.010780 2.097668 
0.384783 -0.021049 2.198632 
0.389888 -0.030789 2.299302 
0.394364 -0.039008 2.399952 
0.397863 -0.045736 2.501034 
0.400104 -0.050372 2.602152 
0.401791 -0.053097 2.703505 
0.402056 -0.053542 2.805052 
0.401232 -0.051597 2.906538 
0.398763 -0.047502 3.008124 
0.395506 -0.041198 3.109621 
0.391297 -0.033196 3.211143 
0.385967 -0.023375 3.312400 
0.379953 -0.012292 3.413733 
[...]
POINT_DATA 2674
SCALARS u float 1
LOOKUP_TABLE default
0.018671
0.015315
0.018705
0.015338
0.018849
0.015493
0.018631
0.015318
0.017121
0.015153
0.017219
0.015095
0.017313
0.015241
0.017083
0.015105
0.017879
0.016793
0.015653
0.014727
0.014148
0.014125
0.014621
0.016579
0.017688
0.018621
0.019293
0.019656
0.019675
0.019301
0.017677
0.016601
0.015501
0.014635
0.014090
0.014033
0.014465
0.016399
0.017543
0.018568
0.019322
0.019746
0.019815
0.019501
0.016405
0.017507
0.018458
0.019176
0.019583
0.019629
0.019307
0.017781
0.016715
0.015633
0.014706
0.014149
0.014074
0.014479
0.016399
0.017574
0.018598
0.019349
0.019764
0.019780
0.019409
0.017746
0.016629
0.015506
0.014590
0.014049
0.014025
0.014486
0.016375
0.014153
0.012125
0.010469
0.009382
0.009039
0.009342
0.010089
0.010946
0.011701
0.012216
0.012341
0.012115
0.011457
0.010413
0.009073
0.007407
0.005742
0.004198
0.003376
0.004036
0.005557
0.007347
0.009051
0.010354
0.011471
0.012174
0.012426
0.012119
0.011662
0.010884
0.010025
0.009268
0.008977
0.009343
0.010484
0.012191
0.014274
0.016523
0.012952
0.010399
0.007931
0.005792
0.004788
0.005314
0.006810
0.008614
0.010219
0.011377
0.012263
0.012567
0.012437
0.011884
0.010772
0.009210
0.007390
0.005300
0.003173
0.001789
0.003017
0.005147
0.007283
0.009197
0.010798
0.011917
0.012501
0.012709
0.012338
0.011472
0.010159
0.008563
0.006811
0.005266
0.004684
0.005750
0.007888
0.010377
0.012936
0.016409
0.014195
0.012143
0.010437
0.009329
0.008943
0.009174
0.010016
0.010869
0.011609
0.012106
0.012251
0.012060
0.011452
0.010418
0.009077
0.007465
0.005796
0.004192
0.003443
0.004122
0.005683
0.007489
0.009148
0.010559
0.011550
0.012199
0.012436
0.012229
0.011669
0.010876
0.009971
0.009255
0.008997
0.009321
0.010386
0.012079
0.014117
0.016341
0.012931
0.010380
0.007915
0.005784
0.004668
0.005207
0.006708
0.008528
0.010135
0.011403
0.012301
0.012692
0.012539
0.011871
0.010841
0.009252
0.007380
0.005277
0.003068
0.001621
0.002970
0.005164
0.007329
0.009242
0.010774
0.011914
0.012589
0.012749
0.012359
0.011550
0.010242
0.008632
0.006917
0.005405
0.004878
0.005920
0.008003
0.010521
0.013078
0.015959
0.016813
0.017458
0.017753
0.017626
0.016340
0.015467
0.014778
0.014381
0.014548
0.017778
0.017918
0.017643
0.016940
0.016077
0.016363
0.015467
0.014693
0.014320
0.014480
0.016010
0.016921
0.017592
0.017911
0.017828
0.014620
0.014461
0.014835
0.015588
0.016508
0.017636
0.017796
0.017536
0.016919
0.016121
0.016265
0.015391
0.014650
0.014329
0.014475
0.014689
0.012073
0.009565
0.007444
0.006180
0.006212
0.007316
0.008847
0.010313
0.011470
0.012277
0.012560
0.012489
0.011772
0.010694
0.009067
0.007096
0.004814
0.002449
0.001072
0.002905
0.005185
0.007235
0.009124
0.010676
0.011802
0.012463
0.012638
0.012335
0.011580
0.010408
0.009004
0.007485
0.006347
0.006258
0.007448
0.009496
0.011959
0.014525
0.012623
0.009922
0.007143
0.004609
0.003172
0.003950
0.005950
0.008014
0.009822
0.011231
0.012140
0.012582
0.012514
0.011914
0.010753
0.009233
0.007246
0.005033
0.002654
0.000619
0.002514
0.004921
0.007240
0.009217
0.010824
0.011920
0.012609
0.012741
0.012328
0.011372
0.009950
0.008174
0.006062
0.004039
0.003177
0.004637
0.007165
0.009911
0.012654
0.014478
0.011906
0.009482
0.007460
0.006260
0.006328
0.007400
0.008834
0.010289
0.011547
0.012360
0.012682
0.012596
0.011930
0.010834
0.009246
0.007258
0.005018
0.002662
0.000903
0.002730
0.005087
0.007298
0.009140
0.010648
0.011719
0.012391
0.012553
0.012219
0.011445
0.010239
0.008737
0.007303
0.006248
0.006211
0.007441
0.009524
0.012009
0.014618
0.012544
0.009817
0.007032
0.004555
0.003131
0.004033
0.006063
0.008096
0.009888
0.011310
0.012171
0.012548
0.012404
0.011785
0.010728
0.009268
0.007333
0.005161
0.002754
0.000493
0.002411
0.004889
0.007167
0.009146
0.010730
0.011889
0.012489
0.012633
0.012244
0.011277
0.009905
0.008116
0.006075
0.004029
0.003194
0.004542
0.007071
0.009825
0.012557
0.012439
0.005249
0.012410
0.011456
0.009979
0.007707
0.012514
0.012462
0.011105
0.012085
0.007500
0.009042
0.010432
0.007630
0.006565
0.008187
0.009619
0.008285
0.006979
0.006413
0.012508
0.011889
0.014119
0.014061
0.015406
0.015269
0.012661
0.011664
0.011317
0.012280
0.010226
0.010127
0.007111
0.005911
0.003028
0.011343
0.012576
0.012271
0.012213
0.006854
0.005315
0.012564
0.011181
0.002938
0.010651
0.010457
0.005819
0.012550
0.003115
0.012702
0.006966
0.012730
0.009135
0.005795
0.012501
0.008699
0.003172
0.007766
0.011563
0.011438
0.008175
0.008130
0.001046
0.000760
0.006865
0.007959
0.007053
0.008477
0.014625
0.010379
0.013631
0.015084
0.014086
0.013483
0.009430
0.012898
0.011305
0.011757
0.013510
0.003737
0.008805
0.010606
0.010762
0.009247
0.009509
0.008623
0.011524
0.015893
0.015318
0.006065
0.006905
0.006298
0.007091
0.007154
0.007876
0.008894
0.009148
0.012705
0.012710
0.007591
0.005832
0.011679
0.011724
0.008851
0.007749
0.001821
0.001787
0.007112
0.007076
0.011884
0.011767
0.012688
0.012743
0.009007
0.008418
0.008829
0.008813
0.004471
0.004473
0.002340
0.002157
0.004327
0.004199
0.008698
0.008661
0.010386
0.010554
0.006942
0.004515
0.005205
0.006795
0.007384
0.007755
0.011513
0.011640
0.012387
0.012352
0.008685
0.009190
0.010307
0.010549
0.011036
0.010887
0.006835
0.007829
0.012384
0.012278
0.012598
0.012566
0.012373
0.012386
0.009742
0.009645
0.012625
0.012650
0.011513
0.011566
0.005243
0.005198
0.012413
0.012407
0.005829
0.006940
0.006623
0.004561
0.006621
0.006638
0.010478
0.010384
0.006852
0.006013
0.008490
0.008782
0.006518
0.006446
0.010164
0.009850
0.012372
0.012338
0.012057
0.012069
0.010392
0.010348
0.010280
0.010258
0.007678
0.006520
0.011345
0.011368
0.012696
0.012701
0.007754
0.007314
0.008785
0.006692
0.008345
0.006449
0.008711
0.013954
0.015787
0.015466
0.011441
0.011508
0.011062
0.012255
0.012258
0.006847
0.001255
0.012168
0.012105
0.012079
0.012553
0.012582
0.004415
0.006770
0.006931
0.010726
0.008763
0.010782
0.010043
0.009496
0.005952
0.010206
0.010202
0.012657
0.003151
0.006906
0.006811
0.011346
0.011341
0.006692
0.005132
0.009243
0.009213
0.001594
0.001676
0.008054
0.008043
0.012303
0.012336
0.005782
0.005809
0.003445
0.003409
0.003661
0.003706
0.013250
0.014932
0.001968
0.002047
0.012256
0.003691
0.012557
0.008891
0.006364
0.011902
0.009022
0.006734
0.011043
0.012567
0.007876
0.002527
0.007356
0.011260
0.005082
0.002639
0.007224
0.002638
0.003037
0.009252
0.000956
0.011575
0.011972
0.010983
0.014041
0.011920
0.013525
0.012585
0.008560
0.009895
0.012520
0.010915
0.005813
0.012437
0.004057
0.011279
0.007708
0.011966
0.011079
0.012162
0.010877
0.010563
0.007622
0.012129
0.009436
0.008186
0.011956
0.007592
0.009332
0.005155
0.001986
0.005720
0.005744
0.001355
0.004569
0.002397
0.005498
0.010639
0.008904
0.002062
0.011627
0.005036
0.007382
0.010571
0.009037
0.002039
0.011794
0.000352
0.000847
0.006201
0.008129
0.010355
0.006603
0.009273
0.007953
0.010738
0.012314
0.004881
0.010624
0.012495
0.012413
0.010508
0.005783
0.007995
0.009381
0.007112
0.009775
0.009732
0.003480
0.004548
0.005185
0.005204
0.002392
0.002421
0.003751
0.005436
0.010172
0.010300
0.012716
0.012724
0.008654
0.008860
0.010244
0.012701
0.012655
0.012582
0.012677
0.009517
0.010020
0.011918
0.011847
0.012966
0.002766
0.005542
0.004381
0.004271
0.008234
0.009064
0.012499
0.009113
0.009074
0.012644
0.012520
0.012409
0.008409
0.008136
0.005101
0.001633
0.008982
0.008831
0.007586
0.006661
0.003592
0.000581
0.000486
0.000649
0.006597
0.006581
0.012038
0.012252
0.008624
0.008548
0.011912
0.011907
0.010480
0.010654
0.007190
0.007164
0.011306
0.011413
0.001272
0.001160
0.006260
0.006741
0.000816
0.003551
0.011792
0.011706
0.003687
0.003762
0.010475
0.010598
0.001584
0.001851
0.005557
0.007001
0.012439
0.012490
0.002591
0.002683
0.006714
0.006838
0.010433
0.009294
0.009384
0.010481
0.004627
0.003024
0.004596
0.006752
0.004478
0.007341
0.006600
0.005579
0.015061
0.012904
0.014775
0.013083
0.012702
0.001473
0.012167
0.012243
0.010538
0.010334
0.012231
0.012380
0.005124
0.008896
0.010996
0.011213
0.004448
0.003210
0.007689
0.007734
0.009504
0.009512
0.012623
0.012638
0.006526
0.005863
0.002201
0.005761
0.008271
0.010380
0.003323
0.006043
0.007423
0.004822
0.004766
0.011103
0.011126
0.012680
0.012632
0.012620
0.011927
0.012498
0.012568
0.012379
0.012555
0.006815
0.003819
0.011872
0.011524
0.002072
0.004565
0.011135
0.010548
0.011748
0.012403
0.012643
0.005265
0.007600
0.011155
0.012009
0.007747
0.012491
0.005847
0.009580
0.012416
0.011192
0.007184
0.009881
0.007928
0.006478
0.006967
0.007280
0.006476
0.011270
0.001118
0.013448
0.013703
0.012632
0.012565
0.015673
0.015996
0.014425
0.014576
0.011653
0.011786
0.011279
0.011292
0.005089
0.002675
0.012232
0.010248
0.012346
0.002785
0.010570
0.010228
0.011467
0.002270
0.003975
0.009156
0.008672
0.005697
0.009075
0.002256
0.004033
0.006878
0.008981
0.006936
0.012491
0.007723
0.012340
0.006775
0.005952
0.007617
0.007938
0.012415
0.004986
0.012330
0.007677
0.007675
0.006803
0.005351
0.011621
0.011502
0.000951
0.001310
0.009013
0.013101
0.013169
0.010835
0.011107
0.008865
0.008875
0.014191
0.012301
0.013431
0.011735
0.003008
0.009159
0.011153
0.005829
0.007583
0.006479
0.006571
0.001470
0.001452
0.006628
0.006426
0.007040
0.001137
0.001323
0.002602
0.004550
0.004606
0.004678
0.004642
0.012021
0.012207
0.012600
0.012606
0.012294
0.012257
0.009271
0.009784
0.015107
0.015679
0.012626
0.012595
0.011179
0.007764
0.012423
0.012450
0.011340
0.008663
0.009012
0.006860
0.010864
0.010049
0.002502
0.002701
0.011974
0.011846
0.003963
0.004052
0.010833
0.010999
0.012483
0.012503
0.010480
0.010471
0.006751
0.006701
0.011620
0.011562
0.007576
0.007659
0.004508
0.006813
0.010833
0.011169
0.007890
0.008237
0.003921
0.003982
0.012362
0.012317
0.012280
0.012314
0.004500
0.006711
0.006011
0.005711
0.005792
0.011949
0.012090
0.012522
0.012603
0.008609
0.008728
0.006109
0.007661
0.010107
0.010197
0.006805
0.006844
0.011873
0.011832
0.008691
0.008738
0.005852
0.006863
0.007344
0.006546
0.006530
0.009704
0.011757
0.011796
0.007927
0.006127
0.007570
0.008777
0.011654
0.011709
0.008848
0.009710
0.008905
0.008225
0.007192
0.007545
0.009848
0.009193
0.007310
0.012027
0.015732
0.016043
0.013965
0.014046
0.005002
0.005107
0.009388
0.011301
0.005863
0.005876
0.001727
0.001624
0.012256
0.012360
0.012235
0.012203
0.011176
0.010995
0.010430
0.010372
0.010257
0.008615
0.008598
0.010343
0.009683
0.012544
0.008603
0.007573
0.009794
0.009887
0.015494
0.015128
0.008658
0.009946
0.009729
0.004184
0.012530
0.009252
0.011994
0.006974
0.012506
0.008124
0.007450
0.003723
0.008915
0.011756
0.006404
0.008975
0.012605
0.006763
0.012449
0.010479
0.012260
0.003675
0.011961
0.010522
0.009139
0.002125
0.004575
0.004599
0.008486
0.002298
0.003305
0.000953
0.011287
0.009987
0.009980
0.011317
0.011295
0.012375
0.012516
0.014097
0.013935
0.005392
0.003658
0.012575
0.011052
0.012590
0.011167
0.007620
0.007326
0.010584
0.012093
0.003712
0.004448
0.000753
0.012189
0.010497
0.007319
0.005704
0.012377
0.009162
0.004757
0.012206
0.002392
0.009084
0.005367
0.005373
0.011805
0.011716
0.010500
0.008955
0.002183
0.012543
0.005453
0.007778
0.010496
0.008924
0.002053
0.012526
0.000413
0.000760
0.006411
0.008341
0.009656
0.010248
0.007638
0.006219
0.005300
0.012944
0.010318
0.011052
0.013027
0.007045
0.005753
0.009774
0.009785
0.005077
0.005069
0.011797
0.011857
0.002451
0.002501
0.000998
0.008951
0.009157
0.012645
0.012669
0.002477
0.005888
0.001881
0.012606
0.012681
0.012712
0.012588
0.012948
0.010028
0.010281
0.006702
0.007049
0.011802
0.011701
0.003350
0.005542
0.007792
0.006870
0.008317
0.005114
0.007690
0.007983
0.008532
0.009092
0.011070
0.011150
0.005058
0.005089
0.012573
0.012585
0.006516
0.007471
0.009052
0.009023
0.012572
0.012574
0.006264
0.005527
0.009011
0.008535
0.012418
0.012407
0.004298
0.006057
0.005439
0.002861
0.006950
0.005704
0.011514
0.011340
0.008301
0.007966
0.000455
0.000680
0.009193
0.009121
0.007273
0.007250
0.012347
0.012180
0.011457
0.011576
0.010688
0.010625
0.007070
0.007087
0.011443
0.011531
0.010589
0.010527
0.012400
0.012380
0.001278
0.000938
0.012466
0.012421
0.004009
0.002583
0.003798
0.003682
0.002313
0.002316
0.002384
0.002356
0.006843
0.006817
0.002890
0.004509
0.010401
0.009410
0.009333
0.005350
0.002393
0.006805
0.011338
0.004496
0.008184
0.010327
0.012967
0.013097
0.015086
0.014982
0.009716
0.003359
0.009862
0.001521
0.012088
0.012106
0.010219
0.010020
0.007119
0.011821
0.011940
0.007735
0.007739
0.012100
0.012177
0.011140
0.011125
0.005152
0.001892
0.010519
0.010645
0.003968
0.000541
0.003162
0.012632
0.004814
0.004837
0.010594
0.010294
0.004885
0.005585
0.012292
0.012890
0.012369
0.012565
0.012448
0.012510
0.012095
0.011871
0.011521
0.011665
0.012567
0.012504
0.011361
0.011451
0.007648
0.006952
0.008053
0.008256
0.006129
0.009990
0.004166
0.011730
0.009123
0.006424
0.004199
0.011986
0.010809
0.012706
0.012536
0.001453
0.006084
0.003555
0.008283
0.011511
0.010276
0.011169
0.006140
0.009502
0.003611
0.006907
0.007223
0.010281
0.010941
0.012687
0.011717
0.004863
0.008751
0.003917
0.007893
0.002828
0.007769
0.003685
0.002824
0.011785
0.011733
0.004657
0.005109
0.009602
0.009397
0.011373
0.011400
0.006822
0.003432
0.009604
0.008714
0.006105
0.008174
0.002580
0.000522
0.010547
0.010014
0.003567
0.002706
0.008585
0.009736
0.008284
0.006688
0.010677
0.010279
0.012295
0.012441
0.007374
0.007419
0.012007
0.012307
0.011044
0.011297
0.012413
0.012657
0.005683
0.005422
0.011625
0.011360
0.009034
0.008973
0.012598
0.012830
0.012287
0.012391
0.008483
0.006208
0.010469
0.008849
0.006642
0.007707
0.010372
0.009344
0.005055
0.003429
0.001632
0.004687
0.003593
0.009003
0.005578
0.005706
0.006708
0.005681
0.002791
0.002149
0.003067
0.001099
0.012787
0.012480
0.003405
0.001919
0.007179
0.008389
0.004762
0.008285
0.004326
0.003395
0.003229
0.002769
0.012700
0.012569
0.010065
0.009700
0.012019
0.012173
0.004723
0.004904
0.011676
0.011956
0.011064
0.011192
0.010976
0.010886
0.007351
0.007339
0.009533
0.010384
0.004773
0.004204
0.009348
0.009233
0.012107
0.011893
0.007962
0.006440
0.007929
0.006193
0.010723
0.009983
0.011567
0.011952
0.008256
0.009650
0.011917
0.011904
0.010299
0.010852
0.011042
0.011415
0.010970
0.010741
0.006751
0.006594
0.012424
0.012754
0.008382
0.008521
0.012078
0.012160
0.012371
0.012293
0.008484
0.008443
0.009380
0.009448
0.010153
0.008928
0.008241
0.008803
0.012362
0.012685
0.012542
0.012682
0.010940
0.010770
0.010032
0.010299
0.012285
0.012619
0.012788
0.012616
0.005752
0.002738
0.003016
0.008111
0.009404
0.004767
0.005925
0.002544
0.008740
0.002778
0.000567
0.006749
0.006807
0.009046
0.007138
0.005696
0.007604
0.006160
0.003573
0.002044
0.005930
0.010624
0.011179
0.013025
0.010318
0.014624
0.012245
0.013561
0.009416
0.004236
0.003738
0.000711
0.001855
0.001712
0.004844
0.008074
0.003083
0.012387
0.001524
0.015268
0.011702
0.009215
0.004091
0.011599
0.012692
0.012510
0.012813
0.004605
0.007801
0.006899
0.009017
0.012412
0.012663
0.009577
0.012256
0.006779
0.011249
0.011315
0.011678
0.012332
0.012721
0.012110
0.012469
0.008937
0.011589
0.007860
0.007868
0.012682
0.006441
0.001544
0.013568
0.008645
0.009361
0.009537
0.013314
0.014315
0.011102
0.010316
0.010144
0.004193
0.006911
0.003814
0.005148
0.011570
0.010716
0.006853
0.002634
0.008555
0.005192
0.009622
0.009852
0.010619
0.012682
0.006584
0.012357
0.012570
0.003281
0.004998
0.004517
0.009347
0.012771
0.012568
0.011988
0.010347
0.012656
0.012722
0.012736
0.012446
0.005367
0.013048
0.008333
0.016567
0.016014
0.013467
0.008753
0.009528
0.015010
0.009988
0.009402
0.012126
0.005002
0.011210
0.006638
0.008394
0.012182
0.011828
0.010881
0.004710
0.012158
0.003773
0.012268
0.008611
0.009972
0.006755
0.011764
0.010827
0.011519
0.010161
0.009654
0.009631
0.017802
0.015267
0.015973
0.012912
0.011429
0.012275
0.012105
0.011687
0.011633
0.010782
0.010608
0.009798
0.008340
0.009951
0.007706
0.009953
0.008498
0.011055
0.010683
0.008030
0.008081
0.004806
0.004300
0.009459
0.009392
0.011648
0.011786
0.009722
0.010497
0.010473
0.008369
0.010787
0.008046
0.007625
0.007803
0.009952
0.008566
0.011450
0.011743
0.002894
0.003841
0.010254
0.009916
0.010495
0.009742
0.006344
0.006132
0.011878
0.012179
0.004655
0.004046
0.012354
0.012074
0.006482
0.006239
0.012322
0.012525
0.012206
0.012342
0.010907
0.011318
0.015640
0.013401
0.011458
0.009570
0.009178
0.011238
0.010116
0.009187
0.007680
0.007309
0.010299
0.012050
0.011924
0.009107
0.010560
0.009512
0.006958
0.012268
0.012382
0.012052
0.011852
0.003967
0.003620
0.011730
0.011436
0.007873
0.007915
0.002345
0.003735
0.011930
0.012269
0.003003
0.004148
0.012626
0.012331
0.012501
0.012032
0.007432
0.007570
0.008720
0.008717
0.010962
0.010343
0.010409
0.009444
0.011466
0.011186
0.009947
0.008878
0.012337
0.012145
0.012252
0.012103
0.012015
0.011948
0.010170
0.009524
0.010638
0.010375
0.012536
0.012212
0.012155
0.012193
0.010469
0.010397
0.009548
0.006813
0.005461
0.005309
0.009122
0.009226
0.011484
0.011364
0.011891
0.011924
0.004195
0.003867
0.011830
0.011369
0.007096
0.006876
0.005568
0.005447
0.003375
0.004315
0.010974
0.011168
0.010686
0.009849
0.011062
0.011419
0.005605
0.006011
0.012590
0.012376
0.010525
0.010299
0.010221
0.006441
0.007319
0.009986
0.011447
0.017349
0.009925
0.008524
0.009728
0.008913
0.009639
0.011646
0.012837
0.010347
0.014995
0.012125
0.009640
0.010847
0.007496
0.010086
0.014955
0.013294
0.015294
0.011777
0.010002
0.012045
0.010535
0.007744
0.015374
0.003708
0.016661
0.014539
0.017768
0.008606
0.009884
0.011195
0.011350
0.012341
0.006553
0.009299
0.009253
0.009560
0.005990
0.008192
0.011764
0.012065
0.010641
0.013405
0.010484
0.006674
0.006565
0.008101
0.017813
0.011023
0.011861
0.009843
0.009152
0.012538
0.012340
0.010617
0.012465
0.012149
0.010292
0.012279
0.012412
0.009775
0.010266
0.007257
0.009773
0.007977
0.012146
0.012093
0.009808
0.009242
0.010518
0.014157
0.009877
0.004883
0.004111
0.011606
0.011578
0.011716
0.012755
0.013477
0.015506
0.009483
0.009293
0.013946
0.010035
0.009123
0.005333
0.004775
0.016425
0.011054
0.011381
0.012812
0.010938
0.010644
0.010649
0.013849
0.014861
0.011616
0.013583
0.017470
0.012082
0.012018
0.010635
0.010236
0.008902
0.009043
0.016106
0.012058
0.011675
0.014263
0.016054
0.017723
0.014751
0.017235
0.012350
0.015283
0.016526
0.013492
0.014647
0.016765
0.016747
0.013990
0.008514
0.008064
0.006779
0.010334
0.009707
0.012481
0.011371
0.012309
0.012688
0.012361
0.004004
0.002239
0.012748
0.007855
0.005821
0.011865
0.007152
0.003386
0.004847
0.008561
0.011071
0.011041
0.014653
0.004857
0.008752
0.002399
0.007264
0.004754
0.007156
0.011894
0.012176
0.009614
0.009778
0.010218
0.009533
0.012492
0.012733
0.002291
0.007513
0.007499
0.007462
0.003017
0.007002
0.003141
0.006809
0.012254
0.012334
0.004686
0.005209
0.007538
0.009798
0.007664
0.009685
0.011180
0.011462
0.003174
0.003884
0.012802
0.012542
0.005423
0.005692
0.012407
0.012388
0.011526
0.011694
0.007806
0.011214
0.013213
0.010818
0.006433
0.010892
0.009497
0.007087
0.008938
0.012938
0.007763
0.011900
0.013590
0.011206
0.004822
0.003232
0.004576
0.005259
0.001266
0.002855
0.005711
0.005686
0.006837
0.012785
0.012636
0.006934
0.008932
0.010944
0.011012
0.001749
0.001004
0.006228
0.006100
0.008660
0.008695
0.009873
0.010635
0.008698
0.008663
0.011359
0.010967
0.000817
0.002863
0.005017
0.005519
0.006562
0.006828
0.008672
0.008646
0.007486
0.007391
0.008723
0.008788
0.005303
0.008229
0.010022
0.010532
0.010594
0.010702
0.008756
0.008168
0.012433
0.012282
0.010249
0.010416
0.010658
0.010662
0.004656
0.004851
0.003310
0.003667
0.012695
0.012384
0.012678
0.012577
0.012202
0.012232
0.010213
0.010492
0.011243
0.011577
0.011750
0.011910
0.011844
0.011988
0.012564
0.012666
0.011311
0.011377
0.007780
0.009348
0.002777
0.003836
0.011443
0.011834
0.012059
0.011990
0.005787
0.006109
0.012253
0.012624
0.012652
0.012474
0.011989
0.004444
0.005250
0.002699
0.005399
0.007266
0.004886
0.009833
0.005346
0.002154
0.015344
0.012363
0.001138
0.006690
0.003079
0.007933
0.009397
0.005603
0.000385
0.006432
0.010584
0.014188
0.008076
0.006205
0.008983
0.010183
0.008658
0.003330
0.001641
0.008758
0.012146
0.013109
0.011626
0.009654
0.011154
0.009436
0.016622
0.013199