# vtk DataFile Version 2.0
Unstructured Grid Example
ASCII
DATASET UNSTRUCTURED_GRID
POINTS 2674 float
0.021807 0.452014 -0.037043 
0.524024 -0.043268 0.018518 
0.021875 -0.548271 0.036837 
-0.475299 -0.042870 -0.018785 
-0.021993 0.548746 3.962990 
0.474792 0.043044 4.019223 
-0.022090 -0.452304 4.037011 
-0.524247 0.043059 3.981254 
0.022203 0.326683 -0.025733 
0.399192 -0.044507 0.012945 
0.022649 -0.423617 0.025554 
-0.350122 -0.043872 -0.012998 
-0.022521 0.424043 3.974387 
0.349588 0.044119 4.013165 
-0.022598 -0.327006 4.025696 
-0.399425 0.044176 3.987031 
0.076491 0.538366 3.967431 
0.170776 0.508929 3.973049 
0.257303 0.461410 3.979720 
0.332577 0.398055 3.987294 
0.393952 0.321236 3.995479 
0.438989 0.234183 4.003631 
0.466161 0.140268 4.011511 
0.464391 -0.053761 4.026063 
0.435446 -0.146534 4.031859 
0.389306 -0.231953 4.036456 
0.327576 -0.306854 4.039697 
0.252593 -0.368258 4.041367 
0.167139 -0.413941 4.041461 
0.074475 -0.442434 4.040038 
-0.118735 -0.443428 4.032640 
-0.212042 -0.415765 4.026842 
-0.298266 -0.370666 4.020250 
-0.374177 -0.309288 4.012845 
-0.436873 -0.234282 4.004931 
-0.484061 -0.148386 3.996831 
-0.513497 -0.054762 3.988744 
-0.515519 0.141287 3.974372 
-0.487750 0.236172 3.968568 
-0.441784 0.323845 3.963883 
-0.379321 0.400744 3.960580 
-0.302928 0.463831 3.958813 
-0.215530 0.510730 3.958661 
-0.120600 0.539348 3.960010 
-0.464963 0.053973 -0.025667 
-0.436032 0.146750 -0.031453 
-0.389803 0.232190 -0.036123 
-0.327967 0.306992 -0.039433 
-0.252912 0.368291 -0.041181 
-0.167416 0.413932 -0.041349 
-0.074725 0.442255 -0.039998 
0.118502 0.442889 -0.032684 
0.211709 0.415279 -0.027095 
0.297912 0.370079 -0.020495 
0.373908 0.308954 -0.013083 
0.436681 0.233972 -0.005006 
0.483811 0.148096 0.003112 
0.513321 0.054538 0.010983 
0.515390 -0.141473 0.025436 
0.487807 -0.236394 0.031276 
0.441853 -0.324023 0.036020 
0.379443 -0.400886 0.039328 
0.302946 -0.464001 0.041084 
0.215494 -0.510673 0.041225 
0.120524 -0.539095 0.039810 
-0.076483 -0.537852 0.032449 
-0.170781 -0.508269 0.026888 
-0.257260 -0.460797 0.020262 
-0.332707 -0.397566 0.012746 
-0.394074 -0.320881 0.004823 
-0.439359 -0.234017 -0.003251 
-0.466650 -0.140096 -0.011139 
0.017932 0.460970 0.063294 
0.013580 0.470075 0.163877 
0.009013 0.479390 0.264724 
0.004312 0.488737 0.365950 
-0.000313 0.497958 0.467694 
-0.004641 0.506740 0.569906 
-0.008757 0.514942 0.672816 
-0.012535 0.522060 0.776166 
-0.015543 0.527945 0.879903 
-0.017676 0.532362 0.983561 
-0.019274 0.535271 1.087308 
-0.019830 0.536769 1.191759 
-0.019799 0.536553 1.295608 
-0.018881 0.534724 1.399274 
-0.017012 0.531512 1.502906 
-0.014639 0.526954 1.606257 
-0.011555 0.521180 1.708427 
-0.008106 0.515027 1.810049 
-0.004415 0.508065 1.911190 
-0.000338 0.500747 2.011618 
0.003601 0.493251 2.111637 
0.007531 0.485917 2.210614 
0.011043 0.478996 2.308917 
0.014196 0.472884 2.406202 
0.016864 0.468661 2.503104 
0.018697 0.465120 2.599494 
0.019840 0.463211 2.695817 
0.020073 0.463016 2.791775 
0.019535 0.465021 2.888021 
0.017977 0.467891 2.983723 
0.015472 0.472292 3.079920 
0.012579 0.478161 3.176308 
0.009103 0.485319 3.273091 
0.004872 0.493410 3.370128 
0.000393 0.502324 3.467850 
-0.004339 0.511611 3.566014 
-0.009064 0.521093 3.664755 
-0.013697 0.530484 3.763825 
-0.018048 0.539725 3.863306 
-0.479840 -0.035267 0.081376 
-0.484503 -0.026654 0.181651 
-0.489256 -0.017612 0.282020 
-0.494095 -0.008308 0.382812 
-0.498711 0.000822 0.483550 
-0.503114 0.009530 0.584647 
-0.507350 0.017618 0.686297 
-0.511055 0.024738 0.787784 
-0.514042 0.030606 0.889543 
-0.516102 0.034846 0.991779 
-0.517602 0.037953 1.093663 
-0.518256 0.039116 1.195902 
-0.518217 0.038792 1.297770 
-0.517687 0.036989 1.399373 
-0.516130 0.033462 1.501270 
-0.513691 0.028491 1.603282 
-0.510906 0.022609 1.704473 
-0.507573 0.015700 1.805524 
-0.503906 0.008270 1.906020 
-0.500145 0.000208 2.006168 
-0.496322 -0.007610 2.106074 
-0.492497 -0.015153 2.205424 
-0.489065 -0.022167 2.304522 
-0.486094 -0.028350 2.403143 
-0.483671 -0.033457 2.501448 
-0.482233 -0.037082 2.599695 
-0.481447 -0.038873 2.697709 
-0.481126 -0.039367 2.795904 
-0.482003 -0.038074 2.893777 
-0.483552 -0.035063 2.991828 
-0.485885 -0.030479 3.089977 
-0.488714 -0.024534 3.188010 
-0.492425 -0.017488 3.286250 
-0.496553 -0.009357 3.384809 
-0.500855 -0.000673 3.483874 
-0.505483 0.008580 3.582973 
-0.510268 0.017829 3.682184 
-0.514971 0.026875 3.781682 
-0.519709 0.035475 3.881415 
0.018002 -0.539355 0.136507 
0.013687 -0.530216 0.236036 
0.009110 -0.520862 0.335175 
0.004381 -0.511509 0.433841 
-0.000251 -0.502323 0.532105 
-0.004638 -0.493617 0.629831 
-0.008823 -0.485562 0.726752 
-0.012506 -0.478517 0.824008 
-0.015409 -0.472573 0.920412 
-0.017722 -0.467995 1.016309 
-0.019175 -0.464982 1.112282 
-0.019950 -0.463650 1.208211 
-0.019775 -0.463627 1.304195 
-0.018745 -0.465222 1.400617 
-0.017104 -0.468499 1.497312 
-0.014685 -0.472920 1.594346 
-0.011509 -0.478479 1.691764 
-0.007881 -0.484916 1.789497 
-0.004003 -0.492280 1.888442 
-0.000021 -0.499858 1.988120 
0.004003 -0.507314 2.088478 
0.007839 -0.514642 2.189578 
0.011510 -0.521406 2.291225 
0.014603 -0.527314 2.393909 
0.017184 -0.531974 2.496881 
0.018857 -0.535105 2.600289 
0.020026 -0.536788 2.704180 
0.020348 -0.536871 2.808229 
0.019512 -0.535363 2.912211 
0.017945 -0.532193 3.016208 
0.015613 -0.527528 3.120166 
0.012634 -0.521483 3.223718 
0.009008 -0.514505 3.326983 
0.004893 -0.506593 3.429936 
0.000424 -0.497890 3.532090 
-0.004277 -0.488818 3.633775 
-0.009065 -0.479601 3.735197 
-0.013729 -0.470340 3.836117 
-0.018127 -0.461233 3.936711 
0.519537 -0.035672 0.118341 
0.515066 -0.027100 0.217930 
0.510418 -0.018046 0.317653 
0.505681 -0.008747 0.417013 
0.501067 0.000440 0.516065 
0.496642 0.009223 0.615047 
0.492627 0.017275 0.713527 
0.488866 0.024508 0.811885 
0.485971 0.030413 0.910061 
0.483716 0.034883 1.008119 
0.481931 0.037926 1.106044 
0.481222 0.039357 1.204011 
0.481201 0.038918 1.301971 
0.482084 0.036835 1.400116 
0.483586 0.033564 1.498215 
0.486153 0.028576 1.596715 
0.489108 0.022592 1.695595 
0.492269 0.015646 1.794811 
0.495855 0.008031 1.894487 
0.499516 0.000153 1.994432 
0.503216 -0.007793 2.094176 
0.506838 -0.015475 2.194412 
0.510549 -0.022507 2.295343 
0.513549 -0.028715 2.397043 
0.515988 -0.033528 2.498539 
0.517866 -0.037021 2.600270 
0.518829 -0.039087 2.702071 
0.519058 -0.039413 2.804284 
0.518139 -0.038083 2.906259 
0.516762 -0.035131 3.008542 
0.514282 -0.030587 3.110452 
0.511007 -0.024719 3.212442 
0.507513 -0.017581 3.314282 
0.503168 -0.009538 3.415710 
0.498609 -0.000787 3.516756 
0.493842 0.008442 3.617550 
0.489118 0.017698 3.718191 
0.484257 0.026786 3.818776 
0.479474 0.035370 3.919073 
-0.336525 0.052323 -0.019252 
-0.298816 0.141613 -0.024225 
-0.239570 0.218061 -0.027469 
-0.162808 0.276770 -0.028977 
-0.073564 0.313791 -0.028305 
0.118280 0.314621 -0.021503 
0.208339 0.278254 -0.015848 
0.286158 0.219610 -0.009157 
0.346594 0.142970 -0.001592 
0.385146 0.052781 0.005825 
0.120955 -0.411215 0.028133 
0.212521 -0.373409 0.028803 
0.290906 -0.313099 0.027303 
0.350678 -0.234110 0.023921 
0.387574 -0.142526 0.019153 
-0.075357 -0.409773 0.021348 
-0.166148 -0.371052 0.015781 
-0.243446 -0.310092 0.008942 
-0.302209 -0.231440 0.001458 
-0.338571 -0.140666 -0.005920 
-0.387646 0.142180 3.980789 
-0.350638 0.233930 3.975848 
-0.290863 0.312893 3.972689 
-0.212351 0.373441 3.971159 
-0.120802 0.411477 3.971822 
0.338088 0.140927 4.006124 
0.301984 0.231871 3.998507 
0.243361 0.310629 3.991195 
0.166101 0.371577 3.984410 
0.075411 0.410373 3.978619 
0.073152 -0.314016 4.028417 
0.162424 -0.276762 4.028941 
0.239088 -0.218026 4.027548 
0.298237 -0.141534 4.024322 
0.335972 -0.052102 4.019591 
-0.118638 -0.315074 4.021469 
-0.208716 -0.278716 4.015808 
-0.286459 -0.220189 4.008884 
-0.346797 -0.143267 4.001476 
-0.385342 -0.053185 3.994060 
-0.018543 0.414868 3.874792 
-0.014148 0.405521 3.775430 
-0.009445 0.395921 3.676284 
-0.004700 0.386161 3.577349 
0.000050 0.376612 3.478737 
0.004469 0.367589 3.380392 
0.008533 0.359259 3.282209 
0.012215 0.352004 3.184068 
0.015332 0.346105 3.085997 
0.017456 0.341484 2.988239 
0.018986 0.338273 2.890782 
0.019701 0.337049 2.792951 
0.019458 0.336871 2.695059 
0.018094 0.338759 2.597006 
0.016579 0.342059 2.498791 
0.014141 0.347097 2.400399 
0.010913 0.353122 2.301307 
0.007378 0.360301 2.202331 
0.003451 0.367920 2.103061 
-0.000601 0.375739 2.003575 
-0.004523 0.383286 1.903369 
-0.008292 0.390570 1.802993 
-0.011612 0.397012 1.701953 
-0.014679 0.402850 1.600144 
-0.016853 0.407728 1.498691 
-0.018524 0.411127 1.396825 
-0.019478 0.412983 1.294779 
-0.019665 0.413218 1.192641 
-0.018918 0.411883 1.090351 
-0.017502 0.408794 0.987832 
-0.015224 0.404269 0.885819 
-0.012302 0.398330 0.783580 
-0.008760 0.391056 0.681767 
-0.004638 0.382732 0.580042 
-0.000085 0.373654 0.478451 
0.004588 0.364202 0.377135 
0.009310 0.354619 0.276093 
0.013902 0.345070 0.175232 
0.018270 0.335819 0.074646 
0.394644 -0.036699 0.112810 
0.390000 -0.028045 0.212669 
0.385296 -0.018856 0.312078 
0.380517 -0.009526 0.411478 
0.375759 -0.000428 0.510911 
0.371215 0.008440 0.610009 
0.366953 0.016558 0.709087 
0.363367 0.023729 0.808131 
0.360251 0.029712 0.906935 
0.357872 0.034278 1.005762 
0.356357 0.037229 1.104601 
0.355469 0.038625 1.203360 
0.355410 0.038403 1.302392 
0.356322 0.036592 1.401416 
0.358095 0.033018 1.500790 
0.360469 0.028350 1.599974 
0.363631 0.022243 1.698990 
0.367038 0.015361 1.798517 
0.370741 0.007842 1.897949 
0.374469 0.000113 1.997934 
0.378224 -0.007872 2.098297 
0.382144 -0.015371 2.199001 
0.385872 -0.022483 2.299490 
0.389140 -0.028485 2.399965 
0.391695 -0.033398 2.500755 
0.393332 -0.036784 2.601572 
0.394564 -0.038774 2.702560 
0.394758 -0.039098 2.803689 
0.394155 -0.037678 2.904774 
0.392353 -0.034688 3.005932 
0.389975 -0.030084 3.107026 
0.386900 -0.024241 3.208137 
0.383008 -0.017070 3.309055 
0.378617 -0.008976 3.410028 
[...]
POINT_DATA 2674
SCALARS u float 1
LOOKUP_TABLE default
0.018671
0.015315
0.018705
0.015338
0.018849
0.015493
0.018631
0.015318
0.017121
0.015153
0.017219
0.015095
0.017313
0.015241
0.017083
0.015105
0.017879
0.016793
0.015653
0.014727
0.014148
0.014125
0.014621
0.016579
0.017688
0.018621
0.019293
0.019656
0.019675
0.019301
0.017677
0.016601
0.015501
0.014635
0.014090
0.014033
0.014465
0.016399
0.017543
0.018568
0.019322
0.019746
0.019815
0.019501
0.016405
0.017507
0.018458
0.019176
0.019583
0.019629
0.019307
0.017781
0.016715
0.015633
0.014706
0.014149
0.014074
0.014479
0.016399
0.017574
0.018598
0.019349
0.019764
0.019780
0.019409
0.017746
0.016629
0.015506
0.014590
0.014049
0.014025
0.014486
0.016375
0.014153
0.012125
0.010469
0.009382
0.009039
0.009342
0.010089
0.010946
0.011701
0.012216
0.012341
0.012115
0.011457
0.010413
0.009073
0.007407
0.005742
0.004198
0.003376
0.004036
0.005557
0.007347
0.009051
0.010354
0.011471
0.012174
0.012426
0.012119
0.011662
0.010884
0.010025
0.009268
0.008977
0.009343
0.010484
0.012191
0.014274
0.016523
0.012952
0.010399
0.007931
0.005792
0.004788
0.005314
0.006810
0.008614
0.010219
0.011377
0.012263
0.012567
0.012437
0.011884
0.010772
0.009210
0.007390
0.005300
0.003173
0.001789
0.003017
0.005147
0.007283
0.009197
0.010798
0.011917
0.012501
0.012709
0.012338
0.011472
0.010159
0.008563
0.006811
0.005266
0.004684
0.005750
0.007888
0.010377
0.012936
0.016409
0.014195
0.012143
0.010437
0.009329
0.008943
0.009174
0.010016
0.010869
0.011609
0.012106
0.012251
0.012060
0.011452
0.010418
0.009077
0.007465
0.005796
0.004192
0.003443
0.004122
0.005683
0.007489
0.009148
0.010559
0.011550
0.012199
0.012436
0.012229
0.011669
0.010876
0.009971
0.009255
0.008997
0.009321
0.010386
0.012079
0.014117
0.016341
0.012931
0.010380
0.007915
0.005784
0.004668
0.005207
0.006708
0.008528
0.010135
0.011403
0.012301
0.012692
0.012539
0.011871
0.010841
0.009252
0.007380
0.005277
0.003068
0.001621
0.002970
0.005164
0.007329
0.009242
0.010774
0.011914
0.012589
0.012749
0.012359
0.011550
0.010242
0.008632
0.006917
0.005405
0.004878
0.005920
0.008003
0.010521
0.013078
0.015959
0.016813
0.017458
0.017753
0.017626
0.016340
0.015467
0.014778
0.014381
0.014548
0.017778
0.017918
0.017643
0.016940
0.016077
0.016363
0.015467
0.014693
0.014320
0.014480
0.016010
0.016921
0.017592
0.017911
0.017828
0.014620
0.014461
0.014835
0.015588
0.016508
0.017636
0.017796
0.017536
0.016919
0.016121
0.016265
0.015391
0.014650
0.014329
0.014475
0.014689
0.012073
0.009565
0.007444
0.006180
0.006212
0.007316
0.008847
0.010313
0.011470
0.012277
0.012560
0.012489
0.011772
0.010694
0.009067
0.007096
0.004814
0.002449
0.001072
0.002905
0.005185
0.007235
0.009124
0.010676
0.011802
0.012463
0.012638
0.012335
0.011580
0.010408
0.009004
0.007485
0.006347
0.006258
0.007448
0.009496
0.011959
0.014525
0.012623
0.009922
0.007143
0.004609
0.003172
0.003950
0.005950
0.008014
0.009822
0.011231
0.012140
0.012582
0.012514
0.011914
0.010753
0.009233
0.007246
0.005033
0.002654
0.000619
0.002514
0.004921
0.007240
0.009217
0.010824
0.011920
0.012609
0.012741
0.012328
0.011372
0.009950
0.008174
0.006062
0.004039
0.003177
0.004637
0.007165
0.009911
0.012654
0.014478
0.011906
0.009482
0.007460
0.006260
0.006328
0.007400
0.008834
0.010289
0.011547
0.012360
0.012682
0.012596
0.011930
0.010834
0.009246
0.007258
0.005018
0.002662
0.000903
0.002730
0.005087
0.007298
0.009140
0.010648
0.011719
0.012391
0.012553
0.012219
0.011445
0.010239
0.008737
0.007303
0.006248
0.006211
0.007441
0.009524
0.012009
0.014618
0.012544
0.009817
0.007032
0.004555
0.003131
0.004033
0.006063
0.008096
0.009888
0.011310
0.012171
0.012548
0.012404
0.011785
0.010728
0.009268
0.007333
0.005161
0.002754
0.000493
0.002411
0.004889
0.007167
0.009146
0.010730
0.011889
0.012489
0.012633
0.012244
0.011277
0.009905
0.008116
0.006075
0.004029
0.003194
0.004542
0.007071
0.009825
0.012557
0.012439
0.005249
0.012410
0.011456
0.009979
0.007707
0.012514
0.012462
0.011105
0.012085
0.007500
0.009042
0.010432
0.007630
0.006565
0.008187
0.009619
0.008285
0.006979
0.006413
0.012508
0.011889
0.014119
0.014061
0.015406
0.015269
0.012661
0.011664
0.011317
0.012280
0.010226
0.010127
0.007111
0.005911
0.003028
0.011343
0.012576
0.012271
0.012213
0.006854
0.005315
0.012564
0.011181
0.002938
0.010651
0.010457
0.005819
0.012550
0.003115
0.012702
0.006966
0.012730
0.009135
0.005795
0.012501
0.008699
0.003172
0.007766
0.011563
0.011438
0.008175
0.008130
0.001046
0.000760
0.006865
0.007959
0.007053
0.008477
0.014625
0.010379
0.013631
0.015084
0.014086
0.013483
0.009430
0.012898
0.011305
0.011757
0.013510
0.003737
0.008805
0.010606
0.010762
0.009247
0.009509
0.008623
0.011524
0.015893
0.015318
0.006065
0.006905
0.006298
0.007091
0.007154
0.007876
0.008894
0.009148
0.012705
0.012710
0.007591
0.005832
0.011679
0.011724
0.008851
0.007749
0.001821
0.001787
0.007112
0.007076
0.011884
0.011767
0.012688
0.012743
0.009007
0.008418
0.008829
0.008813
0.004471
0.004473
0.002340
0.002157
0.004327
0.004199
0.008698
0.008661
0.010386
0.010554
0.006942
0.004515
0.005205
0.006795
0.007384
0.007755
0.011513
0.011640
0.012387
0.012352
0.008685
0.009190
0.010307
0.010549
0.011036
0.010887
0.006835
0.007829
0.012384
0.012278
0.012598
0.012566
0.012373
0.012386
0.009742
0.009645
0.012625
0.012650
0.011513
0.011566
0.005243
0.005198
0.012413
0.012407
0.005829
0.006940
0.006623
0.004561
0.006621
0.006638
0.010478
0.010384
0.006852
0.006013
0.008490
0.008782
0.006518
0.006446
0.010164
0.009850
0.012372
0.012338
0.012057
0.012069
0.010392
0.010348
0.010280
0.010258
0.007678
0.006520
0.011345
0.011368
0.012696
0.012701
0.007754
0.007314
0.008785
0.006692
0.008345
0.006449
0.008711
0.013954
0.015787
0.015466
0.011441
0.011508
0.011062
0.012255
0.012258
0.006847
0.001255
0.012168
0.012105
0.012079
0.012553
0.012582
0.004415
0.006770
0.006931
0.010726
0.008763
0.010782
0.010043
0.009496
0.005952
0.010206
0.010202
0.012657
0.003151
0.006906
0.006811
0.011346
0.011341
0.006692
0.005132
0.009243
0.009213
0.001594
0.001676
0.008054
0.008043
0.012303
0.012336
0.005782
0.005809
0.003445
0.003409
0.003661
0.003706
0.013250
0.014932
0.001968
0.002047
0.012256
0.003691
0.012557
0.008891
0.006364
0.011902
0.009022
0.006734
0.011043
0.012567
0.007876
0.002527
0.007356
0.011260
0.005082
0.002639
0.007224
0.002638
0.003037
0.009252
0.000956
0.011575
0.011972
0.010983
0.014041
0.011920
0.013525
0.012585
0.008560
0.009895
0.012520
0.010915
0.005813
0.012437
0.004057
0.011279
0.007708
0.011966
0.011079
0.012162
0.010877
0.010563
0.007622
0.012129
0.009436
0.008186
0.011956
0.007592
0.009332
0.005155
0.001986
0.005720
0.005744
0.001355
0.004569
0.002397
0.005498
0.010639
0.008904
0.002062
0.011627
0.005036
0.007382
0.010571
0.009037
0.002039
0.011794
0.000352
0.000847
0.006201
0.008129
0.010355
0.006603
0.009273
0.007953
0.010738
0.012314
0.004881
0.010624
0.012495
0.012413
0.010508
0.005783
0.007995
0.009381
0.007112
0.009775
0.009732
0.003480
0.004548
0.005185
0.005204
0.002392
0.002421
0.003751
0.005436
0.010172
0.010300
0.012716
0.012724
0.008654
0.008860
0.010244
0.012701
0.012655
0.012582
0.012677
0.009517
0.010020
0.011918
0.011847
0.012966
0.002766
0.005542
0.004381
0.004271
0.008234
0.009064
0.012499
0.009113
0.009074
0.012644
0.012520
0.012409
0.008409
0.008136
0.005101
0.001633
0.008982
0.008831
0.007586
0.006661
0.003592
0.000581
0.000486
0.000649
0.006597
0.006581
0.012038
0.012252
0.008624
0.008548
0.011912
0.011907
0.010480
0.010654
0.007190
0.007164
0.011306
0.011413
0.001272
0.001160
0.006260
0.006741
0.000816
0.003551
0.011792
0.011706
0.003687
0.003762
0.010475
0.010598
0.001584
0.001851
0.005557
0.007001
0.012439
0.012490
0.002591
0.002683
0.006714
0.006838
0.010433
0.009294
0.009384
0.010481
0.004627
0.003024
0.004596
0.006752
0.004478
0.007341
0.006600
0.005579
0.015061
0.012904
0.014775
0.013083
0.012702
0.001473
0.012167
0.012243
0.010538
0.010334
0.012231
0.012380
0.005124
0.008896
0.010996
0.011213
0.004448
0.003210
0.007689
0.007734
0.009504
0.009512
0.012623
0.012638
0.006526
0.005863
0.002201
0.005761
0.008271
0.010380
0.003323
0.006043
0.007423
0.004822
0.004766
0.011103
0.011126
0.012680
0.012632
0.012620
0.011927
0.012498
0.012568
0.012379
0.012555
0.006815
0.003819
0.011872
0.011524
0.002072
0.004565
0.011135
0.010548
0.011748
0.012403
0.012643
0.005265
0.007600
0.011155
0.012009
0.007747
0.012491
0.005847
0.009580
0.012416
0.011192
0.007184
0.009881
0.007928
0.006478
0.006967
0.007280
0.006476
0.011270
0.001118
0.013448
0.013703
0.012632
0.012565
0.015673
0.015996
0.014425
0.014576
0.011653
0.011786
0.011279
0.011292
0.005089
0.002675
0.012232
0.010248
0.012346
0.002785
0.010570
0.010228
0.011467
0.002270
0.003975
0.009156
0.008672
0.005697
0.009075
0.002256
0.004033
0.006878
0.008981
0.006936
0.012491
0.007723
0.012340
0.006775
0.005952
0.007617
0.007938
0.012415
0.004986
0.012330
0.007677
0.007675
0.006803
0.005351
0.011621
0.011502
0.000951
0.001310
0.009013
0.013101
0.013169
0.010835
0.011107
0.008865
0.008875
0.014191
0.012301
0.013431
0.011735
0.003008
0.009159
0.011153
0.005829
0.007583
0.006479
0.006571
0.001470
0.001452
0.006628
0.006426
0.007040
0.001137
0.001323
0.002602
0.004550
0.004606
0.004678
0.004642
0.012021
0.012207
0.012600
0.012606
0.012294
0.012257
0.009271
0.009784
0.015107
0.015679
0.012626
0.012595
0.011179
0.007764
0.012423
0.012450
0.011340
0.008663
0.009012
0.006860
0.010864
0.010049
0.002502
0.002701
0.011974
0.011846
0.003963
0.004052
0.010833
0.010999
0.012483
0.012503
0.010480
0.010471
0.006751
0.006701
0.011620
0.011562
0.007576
0.007659
0.004508
0.006813
0.010833
0.011169
0.007890
0.008237
0.003921
0.003982
0.012362
0.012317
0.012280
0.012314
0.004500
0.006711
0.006011
0.005711
0.005792
0.011949
0.012090
0.012522
0.012603
0.008609
0.008728
0.006109
0.007661
0.010107
0.010197
0.006805
0.006844
0.011873
0.011832
0.008691
0.008738
0.005852
0.006863
0.007344
0.006546
0.006530
0.009704
0.011757
0.011796
0.007927
0.006127
0.007570
0.008777
0.011654
0.011709
0.008848
0.009710
0.008905
0.008225
0.007192
0.007545
0.009848
0.009193
0.007310
0.012027
0.015732
0.016043
0.013965
0.014046
0.005002
0.005107
0.009388
0.011301
0.005863
0.005876
0.001727
0.001624
0.012256
0.012360
0.012235
0.012203
0.011176
0.010995
0.010430
0.010372
0.010257
0.008615
0.008598
0.010343
0.009683
0.012544
0.008603
0.007573
0.009794
0.009887
0.015494
0.015128
0.008658
0.009946
0.009729
0.004184
0.012530
0.009252
0.011994
0.006974
0.012506
0.008124
0.007450
0.003723
0.008915
0.011756
0.006404
0.008975
0.012605
0.006763
0.012449
0.010479
0.012260
0.003675
0.011961
0.010522
0.009139
0.002125
0.004575
0.004599
0.008486
0.002298
0.003305
0.000953
0.011287
0.009987
0.009980
0.011317
0.011295
0.012375
0.012516
0.014097
0.013935
0.005392
0.003658
0.012575
0.011052
0.012590
0.011167
0.007620
0.007326
0.010584
0.012093
0.003712
0.004448
0.000753
0.012189
0.010497
0.007319
0.005704
0.012377
0.009162
0.004757
0.012206
0.002392
0.009084
0.005367
0.005373
0.011805
0.011716
0.010500
0.008955
0.002183
0.012543
0.005453
0.007778
0.010496
0.008924
0.002053
0.012526
0.000413
0.000760
0.006411
0.008341
0.009656
0.010248
0.007638
0.006219
0.005300
0.012944
0.010318
0.011052
0.013027
0.007045
0.005753
0.009774
0.009785
0.005077
0.005069
0.011797
0.011857
0.002451
0.002501
0.000998
0.008951
0.009157
0.012645
0.012669
0.002477
0.005888
0.001881
0.012606
0.012681
0.012712
0.012588
0.012948
0.010028
0.010281
0.006702
0.007049
0.011802
0.011701
0.003350
0.005542
0.007792
0.006870
0.008317
0.005114
0.007690
0.007983
0.008532
0.009092
0.011070
0.011150
0.005058
0.005089
0.012573
0.012585
0.006516
0.007471
0.009052
0.009023
0.012572
0.012574
0.006264
0.005527
0.009011
0.008535
0.012418
0.012407
0.004298
0.006057
0.005439
0.002861
0.006950
0.005704
0.011514
0.011340
0.008301
0.007966
0.000455
0.000680
0.009193
0.009121
0.007273
0.007250
0.012347
0.012180
0.011457
0.011576
0.010688
0.010625
0.007070
0.007087
0.011443
0.011531
0.010589
0.010527
0.012400
0.012380
0.001278
0.000938
0.012466
0.012421
0.004009
0.002583
0.003798
0.003682
0.002313
0.002316
0.002384
0.002356
0.006843
0.006817
0.002890
0.004509
0.010401
0.009410
0.009333
0.005350
0.002393
0.006805
0.011338
0.004496
0.008184
0.010327
0.012967
0.013097
0.015086
0.014982
0.009716
0.003359
0.009862
0.001521
0.012088
0.012106
0.010219
0.010020
0.007119
0.011821
0.011940
0.007735
0.007739
0.012100
0.012177
0.011140
0.011125
0.005152
0.001892
0.010519
0.010645
0.003968
0.000541
0.003162
0.012632
0.004814
0.004837
0.010594
0.010294
0.004885
0.005585
0.012292
0.012890
0.012369
0.012565
0.012448
0.012510
0.012095
0.011871
0.011521
0.011665
0.012567
0.012504
0.011361
0.011451
0.007648
0.006952
0.008053
0.008256
0.006129
0.009990
0.004166
0.011730
0.009123
0.006424
0.004199
0.011986
0.010809
0.012706
0.012536
0.001453
0.006084
0.003555
0.008283
0.011511
0.010276
0.011169
0.006140
0.009502
0.003611
0.006907
0.007223
0.010281
0.010941
0.012687
0.011717
0.004863
0.008751
0.003917
0.007893
0.002828
0.007769
0.003685
0.002824
0.011785
0.011733
0.004657
0.005109
0.009602
0.009397
0.011373
0.011400
0.006822
0.003432
0.009604
0.008714
0.006105
0.008174
0.002580
0.000522
0.010547
0.010014
0.003567
0.002706
0.008585
0.009736
0.008284
0.006688
0.010677
0.010279
0.012295
0.012441
0.007374
0.007419
0.012007
0.012307
0.011044
0.011297
0.012413
0.012657
0.005683
0.005422
0.011625
0.011360
0.009034
0.008973
0.012598
0.012830
0.012287
0.012391
0.008483
0.006208
0.010469
0.008849
0.006642
0.007707
0.010372
0.009344
0.005055
0.003429
0.001632
0.004687
0.003593
0.009003
0.005578
0.005706
0.006708
0.005681
0.002791
0.002149
0.003067
0.001099
0.012787
0.012480
0.003405
0.001919
0.007179
0.008389
0.004762
0.008285
0.004326
0.003395
0.003229
0.002769
0.012700
0.012569
0.010065
0.009700
0.012019
0.012173
0.004723
0.004904
0.011676
0.011956
0.011064
0.011192
0.010976
0.010886
0.007351
0.007339
0.009533
0.010384
0.004773
0.004204
0.009348
0.009233
0.012107
0.011893
0.007962
0.006440
0.007929
0.006193
0.010723
0.009983
0.011567
0.011952
0.008256
0.009650
0.011917
0.011904
0.010299
0.010852
0.011042
0.011415
0.010970
0.010741
0.006751
0.006594
0.012424
0.012754
0.008382
0.008521
0.012078
0.012160
0.012371
0.012293
0.008484
0.008443
0.009380
0.009448
0.010153
0.008928
0.008241
0.008803
0.012362
0.012685
0.012542
0.012682
0.010940
0.010770
0.010032
0.010299
0.012285
0.012619
0.012788
0.012616
0.005752
0.002738
0.003016
0.008111
0.009404
0.004767
0.005925
0.002544
0.008740
0.002778
0.000567
0.006749
0.006807
0.009046
0.007138
0.005696
0.007604
0.006160
0.003573
0.002044
0.005930
0.010624
0.011179
0.013025
0.010318
0.014624
0.012245
0.013561
0.009416
0.004236
0.003738
0.000711
0.001855
0.001712
0.004844
0.008074
0.003083
0.012387
0.001524
0.015268
0.011702
0.009215
0.004091
0.011599
0.012692
0.012510
0.012813
0.004605
0.007801
0.006899
0.009017
0.012412
0.012663
0.009577
0.012256
0.006779
0.011249
0.011315
0.011678
0.012332
0.012721
0.012110
0.012469
0.008937
0.011589
0.007860
0.007868
0.012682
0.006441
0.001544
0.013568
0.008645
0.009361
0.009537
0.013314
0.014315
0.011102
0.010316
0.010144
0.004193
0.006911
0.003814
0.005148
0.011570
0.010716
0.006853
0.002634
0.008555
0.005192
0.009622
0.009852
0.010619
0.012682
0.006584
0.012357
0.012570
0.003281
0.004998
0.004517
0.009347
0.012771
0.012568
0.011988
0.010347
0.012656
0.012722
0.012736
0.012446
0.005367
0.013048
0.008333
0.016567
0.016014
0.013467
0.008753
0.009528
0.015010
0.009988
0.009402
0.012126
0.005002
0.011210
0.006638
0.008394
0.012182
0.011828
0.010881
0.004710
0.012158
0.003773
0.012268
0.008611
0.009972
0.006755
0.011764
0.010827
0.011519
0.010161
0.009654
0.009631
0.017802
0.015267
0.015973
0.012912
0.011429
0.012275
0.012105
0.011687
0.011633
0.010782
0.010608
0.009798
0.008340
0.009951
0.007706
0.009953
0.008498
0.011055
0.010683
0.008030
0.008081
0.004806
0.004300
0.009459
0.009392
0.011648
0.011786
0.009722
0.010497
0.010473
0.008369
0.010787
0.008046
0.007625
0.007803
0.009952
0.008566
0.011450
0.011743
0.002894
0.003841
0.010254
0.009916
0.010495
0.009742
0.006344
0.006132
0.011878
0.012179
0.004655
0.004046
0.012354
0.012074
0.006482
0.006239
0.012322
0.012525
0.012206
0.012342
0.010907
0.011318
0.015640
0.013401
0.011458
0.009570
0.009178
0.011238
0.010116
0.009187
0.007680
0.007309
0.010299
0.012050
0.011924
0.009107
0.010560
0.009512
0.006958
0.012268
0.012382
0.012052
0.011852
0.003967
0.003620
0.011730
0.011436
0.007873
0.007915
0.002345
0.003735
0.011930
0.012269
0.003003
0.004148
0.012626
0.012331
0.012501
0.012032
0.007432
0.007570
0.008720
0.008717
0.010962
0.010343
0.010409
0.009444
0.011466
0.011186
0.009947
0.008878
0.012337
0.012145
0.012252
0.012103
0.012015
0.011948
0.010170
0.009524
0.010638
0.010375
0.012536
0.012212
0.012155
0.012193
0.010469
0.010397
0.009548
0.006813
0.005461
0.005309
0.009122
0.009226
0.011484
0.011364
0.011891
0.011924
0.004195
0.003867
0.011830
0.011369
0.007096
0.006876
0.005568
0.005447
0.003375
0.004315
0.010974
0.011168
0.010686
0.009849
0.011062
0.011419
0.005605
0.006011
0.012590
0.012376
0.010525
0.010299
0.010221
0.006441
0.007319
0.009986
0.011447
0.017349
0.009925
0.008524
0.009728
0.008913
0.009639
0.011646
0.012837
0.010347
0.014995
0.012125
0.009640
0.010847
0.007496
0.010086
0.014955
0.013294
0.015294
0.011777
0.010002
0.012045
0.010535
0.007744
0.015374
0.003708
0.016661
0.014539
0.017768
0.008606
0.009884
0.011195
0.011350
0.012341
0.006553
0.009299
0.009253
0.009560
0.005990
0.008192
0.011764
0.012065
0.010641
0.013405
0.010484
0.006674
0.006565
0.008101
0.017813
0.011023
0.011861
0.009843
0.009152
0.012538
0.012340
0.010617
0.012465
0.012149
0.010292
0.012279
0.012412
0.009775
0.010266
0.007257
0.009773
0.007977
0.012146
0.012093
0.009808
0.009242
0.010518
0.014157
0.009877
0.004883
0.004111
0.011606
0.011578
0.011716
0.012755
0.013477
0.015506
0.009483
0.009293
0.013946
0.010035
0.009123
0.005333
0.004775
0.016425
0.011054
0.011381
0.012812
0.010938
0.010644
0.010649
0.013849
0.014861
0.011616
0.013583
0.017470
0.012082
0.012018
0.010635
0.010236
0.008902
0.009043
0.016106
0.012058
0.011675
0.014263
0.016054
0.017723
0.014751
0.017235
0.012350
0.015283
0.016526
0.013492
0.014647
0.016765
0.016747
0.013990
0.008514
0.008064
0.006779
0.010334
0.009707
0.012481
0.011371
0.012309
0.012688
0.012361
0.004004
0.002239
0.012748
0.007855
0.005821
0.011865
0.007152
0.003386
0.004847
0.008561
0.011071
0.011041
0.014653
0.004857
0.008752
0.002399
0.007264
0.004754
0.007156
0.011894
0.012176
0.009614
0.009778
0.010218
0.009533
0.012492
0.012733
0.002291
0.007513
0.007499
0.007462
0.003017
0.007002
0.003141
0.006809
0.012254
0.012334
0.004686
0.005209
0.007538
0.009798
0.007664
0.009685
0.011180
0.011462
0.003174
0.003884
0.012802
0.012542
0.005423
0.005692
0.012407
0.012388
0.011526
0.011694
0.007806
0.011214
0.013213
0.010818
0.006433
0.010892
0.009497
0.007087
0.008938
0.012938
0.007763
0.011900
0.013590
0.011206
0.004822
0.003232
0.004576
0.005259
0.001266
0.002855
0.005711
0.005686
0.006837
0.012785
0.012636
0.006934
0.008932
0.010944
0.011012
0.001749
0.001004
0.006228
0.006100
0.008660
0.008695
0.009873
0.010635
0.008698
0.008663
0.011359
0.010967
0.000817
0.002863
0.005017
0.005519
0.006562
0.006828
0.008672
0.008646
0.007486
0.007391
0.008723
0.008788
0.005303
0.008229
0.010022
0.010532
0.010594
0.010702
0.008756
0.008168
0.012433
0.012282
0.010249
0.010416
0.010658
0.010662
0.004656
0.004851
0.003310
0.003667
0.012695
0.012384
0.012678
0.012577
0.012202
0.012232
0.010213
0.010492
0.011243
0.011577
0.011750
0.011910
0.011844
0.011988
0.012564
0.012666
0.011311
0.011377
0.007780
0.009348
0.002777
0.003836
0.011443
0.011834
0.012059
0.011990
0.005787
0.006109
0.012253
0.012624
0.012652
0.012474
0.011989
0.004444
0.005250
0.002699
0.005399
0.007266
0.004886
0.009833
0.005346
0.002154
0.015344
0.012363
0.001138
0.006690
0.003079
0.007933
0.009397
0.005603
0.000385
0.006432
0.010584
0.014188
0.008076
0.006205
0.008983
0.010183
0.008658
0.003330
0.001641
0.008758
0.012146
0.013109
0.011626
0.009654
0.011154
0.009436
0.016622
0.013199