# vtk DataFile Version 2.0
Unstructured Grid Example
ASCII
DATASET UNSTRUCTURED_GRID
POINTS 2044 float
0.981623 0.001599 -0.079427 
0.244073 1.000072 -0.011711 
-1.002156 0.009656 0.085269 
0.257955 -1.007879 -0.000719 
-0.154066 0.000137 1.003425 
0.983542 -0.075358 -0.077028 
0.979998 -0.149514 -0.076737 
0.964951 -0.223566 -0.079610 
0.952860 -0.299207 -0.075664 
0.929850 -0.374958 -0.072042 
0.904924 -0.448642 -0.070109 
0.873327 -0.522638 -0.065540 
0.834991 -0.595817 -0.058850 
0.787988 -0.665110 -0.051549 
0.733931 -0.730942 -0.042897 
0.673095 -0.792936 -0.035453 
0.602580 -0.851289 -0.027671 
0.527114 -0.903107 -0.018738 
0.442612 -0.945206 -0.013572 
0.352734 -0.983345 -0.007062 
0.157264 -1.024796 0.004005 
0.054136 -1.032018 0.010731 
-0.049595 -1.023358 0.015845 
-0.157041 -1.006960 0.020715 
-0.263343 -0.976958 0.027601 
-0.366922 -0.934575 0.033379 
-0.469751 -0.882521 0.039944 
-0.566863 -0.817455 0.049129 
-0.658228 -0.742517 0.057512 
-0.741052 -0.658158 0.060645 
-0.815603 -0.562135 0.067566 
-0.880089 -0.459049 0.072809 
-0.931873 -0.349101 0.078424 
-0.968622 -0.233241 0.082857 
-0.990454 -0.112228 0.082347 
-0.992255 0.131964 0.084221 
-0.970044 0.252751 0.082052 
-0.931071 0.367442 0.079198 
-0.878878 0.476234 0.074037 
-0.817410 0.578166 0.068892 
-0.748231 0.673277 0.066452 
-0.665410 0.757692 0.060482 
-0.575149 0.832683 0.051348 
-0.479206 0.895260 0.046769 
-0.379058 0.945803 0.040389 
-0.274311 0.982748 0.029312 
-0.168417 1.010393 0.018238 
-0.061873 1.023469 0.012345 
0.043641 1.028087 0.003761 
0.145178 1.020778 -0.002820 
0.337867 0.971213 -0.018574 
0.427543 0.936337 -0.023777 
0.511783 0.895930 -0.030375 
0.587668 0.846587 -0.039090 
0.659801 0.790622 -0.041797 
0.722197 0.728883 -0.047483 
0.776712 0.663526 -0.053814 
0.826304 0.595700 -0.057358 
0.869560 0.527260 -0.059484 
0.901036 0.452418 -0.064175 
0.929995 0.378627 -0.067327 
0.951903 0.303114 -0.070957 
0.965479 0.226943 -0.073407 
0.974281 0.149539 -0.076282 
0.981030 0.073759 -0.075917 
0.980175 -0.000258 0.032351 
0.959115 0.000881 0.142438 
0.927582 0.000018 0.249401 
0.884289 -0.002518 0.351603 
0.832207 -0.003313 0.447231 
0.764790 -0.002133 0.538948 
0.695901 -0.001562 0.626568 
0.615553 -0.003365 0.702322 
0.530274 -0.001441 0.777398 
0.435469 -0.002566 0.836139 
0.340087 -0.002769 0.890043 
0.245795 -0.003368 0.937050 
0.145296 -0.002308 0.967557 
0.045318 -0.003511 0.989902 
-0.055302 -0.001865 1.002636 
-0.149339 0.098045 0.996888 
-0.132333 0.195248 0.980834 
-0.106488 0.291012 0.957100 
-0.080272 0.384844 0.924769 
-0.047648 0.474494 0.883330 
-0.011040 0.559788 0.832299 
0.028188 0.638490 0.771855 
0.066414 0.712508 0.704371 
0.103770 0.778088 0.630648 
0.138632 0.836749 0.551238 
0.171536 0.886949 0.465059 
0.201077 0.927239 0.375896 
0.224706 0.959082 0.283379 
0.241468 0.981522 0.187120 
0.247483 0.997180 0.088053 
-0.250020 0.000676 0.992209 
-0.344246 -0.000035 0.973011 
-0.434854 -0.000754 0.946553 
-0.517288 0.001769 0.915738 
-0.593918 0.001418 0.875503 
-0.663495 0.003023 0.826495 
-0.726151 0.000118 0.771266 
-0.782146 0.002433 0.708884 
-0.835129 0.005110 0.643458 
-0.879213 0.006217 0.572146 
-0.918170 0.006948 0.497339 
-0.946438 0.008252 0.416166 
-0.972225 0.009693 0.335732 
-0.986487 0.010968 0.252724 
-0.994685 0.008903 0.170074 
-0.149812 -0.098188 0.999809 
-0.135444 -0.197774 0.985527 
-0.115785 -0.293579 0.961827 
-0.083828 -0.384111 0.925318 
-0.048041 -0.476508 0.883443 
-0.008303 -0.560295 0.832408 
0.035278 -0.638831 0.773560 
0.075940 -0.710954 0.705913 
0.113869 -0.779357 0.634382 
0.150985 -0.839337 0.555319 
0.185526 -0.891608 0.470080 
0.215175 -0.933679 0.382347 
0.237354 -0.966265 0.289852 
0.253410 -0.989355 0.195942 
0.260626 -1.003636 0.097632 
0.782066 0.364524 0.441664 
0.262807 0.333202 0.868459 
0.511070 0.797337 0.357053 
0.891420 0.254855 0.279457 
0.930585 0.208201 0.193698 
0.944403 0.158698 0.164154 
0.967329 0.150623 0.073525 
0.661972 0.695736 0.295112 
0.446890 0.270173 0.796711 
0.333918 0.629658 0.672789 
0.808550 0.523897 0.257908 
0.679916 0.233629 0.624050 
0.847736 0.521685 0.148553 
0.703020 0.148862 0.613192 
0.191378 0.501593 0.817967 
0.343310 0.779154 0.523569 
0.894170 0.407193 0.169143 
0.786239 0.161286 0.496972 
0.069877 0.400795 0.899856 
0.320035 0.870472 0.406490 
0.509241 0.678741 0.506888 
0.386753 0.458668 0.753699 
0.621029 0.809062 0.121342 
0.306855 0.129212 0.902747 
0.928928 0.340715 0.103879 
0.862299 0.135750 0.389068 
0.000491 0.338336 0.940658 
0.299651 0.914551 0.333416 
0.507410 0.892805 0.087124 
0.144230 0.100898 0.960750 
0.955896 0.268493 0.024736 
0.899959 0.067480 0.313984 
0.598560 0.498111 0.576690 
-0.024352 0.273906 0.959727 
0.308937 0.935721 0.267828 
0.456851 0.921314 0.062814 
0.081827 0.076893 0.980068 
0.943093 0.081948 0.183970 
0.967489 0.205544 0.005490 
0.971475 0.072863 0.078247 
0.635499 0.354893 0.626278 
0.717892 0.525503 0.408831 
0.622777 0.626486 0.441680 
0.499849 0.389829 0.722598 
0.819307 0.451583 0.316094 
0.735763 0.281597 0.541414 
0.726398 0.414011 0.490751 
0.430429 0.581442 0.654482 
0.206482 0.162290 0.934381 
0.542106 0.859372 0.161535 
0.577434 0.801411 0.248778 
0.294443 0.235190 0.885085 
0.419608 0.663594 0.595411 
0.352649 0.547281 0.722600 
0.591715 0.685606 0.412623 
0.426040 0.370182 0.778886 
0.230414 0.429908 0.845919 
0.424539 0.787302 0.454989 
0.648511 0.752811 0.216126 
0.384170 0.206364 0.852478 
0.291183 0.487064 0.789545 
0.424252 0.729770 0.524550 
0.162726 0.378391 0.891871 
0.408060 0.835815 0.393817 
0.873824 0.349106 0.278603 
0.839528 0.210968 0.404249 
0.355048 0.299846 0.838551 
0.590440 0.749474 0.327165 
0.513216 0.741712 0.429827 
0.326106 0.392211 0.817235 
0.100287 0.556325 0.814255 
0.231272 0.794641 0.565873 
0.305162 0.717161 0.608432 
0.229960 0.581987 0.754623 
0.036621 0.478542 0.870447 
0.239910 0.855463 0.480862 
0.591401 0.248998 0.705146 
0.752506 0.595468 0.274499 
0.682842 0.768149 0.035425 
0.381270 0.059297 0.871500 
0.380351 0.877853 0.338749 
0.094366 0.332490 0.925021 
0.447605 0.907630 0.169249 
0.089089 0.173868 0.961209 
0.501584 0.604655 0.583118 
0.432892 0.508999 0.697013 
0.165255 0.269266 0.925908 
0.468717 0.861952 0.277578 
0.908620 0.155400 0.271918 
0.930803 0.273827 0.147448 
0.132818 0.459980 0.857802 
0.329323 0.824631 0.474074 
0.624929 0.820804 0.019666 
0.292707 0.046756 0.912536 
0.569418 0.858545 0.053551 
0.220187 0.072244 0.941489 
-0.005003 0.416219 0.907765 
0.247383 0.893537 0.413232 
0.347757 0.948372 0.183297 
-0.022278 0.188122 0.977456 
0.046668 0.263544 0.952454 
0.376647 0.910114 0.262959 
0.615599 0.420131 0.612941 
0.666664 0.519916 0.486548 
0.616700 0.567469 0.501995 
0.550159 0.438356 0.659298 
0.731035 0.348261 0.522859 
0.778584 0.429622 0.403167 
0.668404 0.453547 0.533985 
0.711599 0.695148 0.198040 
0.475540 0.189973 0.804808 
0.858527 0.410524 0.270276 
0.786762 0.246699 0.480188 
0.720974 0.474386 0.448569 
0.678241 0.386438 0.568226 
0.771455 0.306900 0.480480 
0.681013 0.314011 0.591522 
0.767449 0.496317 0.360426 
0.567484 0.622512 0.505975 
0.473647 0.448177 0.707297 
0.828677 0.296179 0.385003 
0.826129 0.386551 0.351497 
0.875438 0.186715 0.340436 
0.955061 0.205969 0.100211 
0.681478 0.632320 0.352989 
0.522332 0.313281 0.736481 
0.609771 0.302800 0.667388 
0.734719 0.562943 0.345626 
0.562644 0.561575 0.563848 
0.510238 0.524536 0.639171 
0.235852 0.662993 0.690532 
0.674979 0.573330 0.425422 
0.573165 0.369632 0.673453 
0.139130 0.648448 0.738980 
0.181054 0.723167 0.661791 
0.796801 0.584986 0.186898 
0.620439 0.181717 0.692953 
0.977482 0.062537 -0.006256 
0.428393 0.125609 0.837845 
0.706010 0.732810 0.118705 
0.668811 0.068003 0.655951 
0.850677 0.555388 0.036025 
0.746210 0.215857 0.550137 
0.853945 0.466142 0.221253 
0.885410 0.481396 0.060662 
0.738076 0.073772 0.572748 
-0.009115 0.083859 0.992082 
0.378696 0.955768 0.072149 
0.858708 0.055826 0.400512 
0.939916 0.342790 0.012265 
0.918544 0.403721 0.035261 
0.813634 0.069908 0.479854 
0.907515 0.329372 0.198208 
0.538135 0.218207 0.752064 
0.738557 0.643317 0.234149 
0.305384 0.982859 0.046663 
-0.092239 0.057674 1.001471 
-0.082595 0.122971 0.992792 
0.306220 0.977026 0.116121 
0.803905 0.628063 0.026956 
0.581899 0.059453 0.737107 
0.746930 0.698121 0.031364 
0.485895 0.060665 0.810624 
0.826285 0.579710 0.096763 
0.636772 0.113217 0.685405 
0.767158 0.655002 0.127764 
0.539778 0.134178 0.765992 
0.873018 0.470487 0.150866 
-0.469278 0.523640 0.767047 
-0.187906 0.952850 0.346808 
-0.838426 0.465983 0.375134 
-0.413387 0.357315 0.883669 
-0.352169 0.303523 0.923084 
-0.334201 0.221552 0.948718 
-0.300448 0.140001 0.972265 
-0.187355 0.864932 0.521854 
-0.803354 0.398905 0.537672 
-0.561633 0.802424 0.306376 
-0.249493 0.684339 0.722776 
-0.687105 0.347876 0.722374 
-0.155380 0.659696 0.761633 
-0.713147 0.233089 0.747154 
-0.356696 0.934161 0.232438 
-0.741167 0.651175 0.254115 
-0.227172 0.553986 0.829423 
-0.588300 0.258347 0.833622 
-0.206992 0.995299 0.153022 
-0.843779 0.519251 0.193721 
-0.703776 0.627603 0.428493 
-0.383193 0.862342 0.414843 
0.033353 0.931540 0.420958 
-0.912641 0.200540 0.453307 
-0.216622 0.465614 0.885041 
-0.534439 0.186496 0.885225 
-0.120103 1.015782 0.104520 
-0.895732 0.433397 0.158391 
0.112736 0.981108 0.279210 
-0.959878 0.151903 0.329087 
-0.483809 0.105632 0.925786 
-0.178234 0.363779 0.929981 
-0.533452 0.682917 0.572930 
-0.046283 1.022898 0.094414 
-0.929158 0.356560 0.154871 
0.150965 0.993937 0.220643 
-0.975008 0.118945 0.279137 
-0.374292 0.116855 0.960662 
-0.229919 0.234356 0.969641 
-0.306496 0.062587 0.981981 
-0.378776 0.707387 0.654027 
-0.636498 0.513001 0.656254 
-0.354012 0.811879 0.531111 
-0.698102 0.553884 0.540141 
-0.599494 0.408614 0.761288 
-0.339304 0.611840 0.756712 
-0.498726 0.580452 0.706296 
-0.549561 0.777504 0.404512 
0.025015 0.973899 0.328696 
-0.931979 0.242646 0.368980 
-0.085203 0.944149 0.394878 
-0.880677 0.345383 0.424276 
-0.472210 0.842918 0.355102 
[...]
POINT_DATA 2044
SCALARS u float 1
LOOKUP_TABLE default
2.157875
6.466533
2.271673
6.829686
4.078174
2.147037
2.362023
2.756965
3.078594
3.428839
3.902357
4.336200
4.748988
5.151354
5.535838
5.909049
6.171768
6.446389
6.627429
6.750633
6.801838
6.739364
6.620928
6.386835
6.097021
5.757501
5.338561
4.898212
4.441922
3.958753
3.470362
3.023191
2.677691
2.435329
2.214972
2.404312
2.669130
3.005098
3.374354
3.771195
4.200942
4.617052
5.008507
5.372566
5.667216
5.909673
6.134076
6.304293
6.441313
6.471849
6.397884
6.294549
6.132877
5.889068
5.649810
5.328569
4.960627
4.576738
4.128480
3.704785
3.289411
2.917193
2.575799
2.357530
2.142129
1.782609
1.506971
1.331997
1.333668
1.465443
1.819476
2.051493
2.427795
2.758106
3.181470
3.482361
3.640402
3.847719
3.971958
4.062506
3.952338
3.502027
2.818151
2.125192
1.264149
0.313527
0.754424
1.764845
2.751222
3.673189
4.544543
5.325026
5.949644
6.393656
6.554867
4.023395
3.952593
3.835777
3.568967
3.247050
2.860244
2.428691
1.987427
1.666807
1.347541
1.193881
1.090500
1.294579
1.559879
1.921448
3.966482
3.587259
3.068071
2.219056
1.279167
0.254023
0.941059
2.012492
3.018089
4.001073
4.916532
5.700256
6.286144
6.710068
6.900785
2.234838
2.279382
4.910307
2.032160
1.980939
1.850478
1.982921
4.608806
2.336721
1.995629
3.653676
1.810600
3.915477
1.794880
0.981004
3.707315
3.187137
1.776700
1.814007
4.927479
3.459480
1.623916
5.741393
3.169465
2.896564
1.557380
2.420106
5.540260
6.190193
3.683134
2.655252
1.465587
2.438274
2.903805
5.954963
6.304228
3.801005
1.609856
2.390415
1.756194
1.968124
3.241790
3.581340
1.894999
3.037569
1.837475
2.412180
2.119723
3.290465
5.959373
5.383114
2.744794
2.773466
1.535710
4.022543
1.907762
1.509416
4.263150
5.198506
2.675241
1.310129
3.524524
1.953757
4.885229
2.522137
1.837545
2.365636
4.811093
4.220678
1.841162
0.439956
3.406556
2.767405
1.096462
1.117859
4.315663
1.994580
4.092195
5.566149
3.153522
5.380941
2.372588
6.184556
3.488261
2.682474
1.790039
2.730200
5.613379
1.713450
2.403541
1.231785
4.255137
5.822548
3.509086
6.016593
3.622915
1.751514
4.951248
6.324770
3.527000
2.969705
5.885030
2.092009
2.895301
3.022361
2.017128
2.024489
2.697011
2.447246
4.953952
2.430911
2.915121
1.826108
2.866280
2.051645
1.988405
1.958458
3.210397
3.236112
1.837192
2.169140
2.547404
1.752741
2.152371
3.984465
2.056332
2.013427
3.638148
2.670652
2.112197
1.843478
3.400997
2.014264
1.217640
2.274574
4.258613
1.993988
1.972348
2.875564
5.352008
2.011827
4.303827
1.688956
3.377575
3.786394
1.838685
3.899725
6.441054
1.449173
3.044493
3.371069
1.502784
2.596486
2.207492
4.515976
6.499061
4.047096
3.825121
6.485894
4.757650
2.378325
5.181416
2.755194
4.387484
2.058166
4.850969
2.386664
3.600478
1.826253
5.466539
2.703661
2.382157
2.720985
3.195695
3.702252
4.017381
2.149442
4.571085
1.772517
2.245666
1.236635
2.260008
5.623995
3.909557
1.064033
2.665508
6.156418
3.406525
3.270807
4.573618
5.069991
1.550050
1.604348
3.058258
6.322742
3.119288
6.006689
1.623760
3.548144
2.313985
2.952905
6.427429
2.838838
6.287561
1.691233
3.741136
3.244866
3.969331
2.494967
2.280303
3.683248
2.654270
2.197046
1.593119
2.083312
4.114658
5.709575
1.863823
5.252848
2.116624
4.687054
3.952963
4.298324
2.708362
5.567710
3.362060
4.541717
1.877914
3.664441
5.174506
3.138165
5.912832
1.696196
2.293914
2.410126
4.837812
3.008183
5.060409
4.279612
5.681683
4.397497
5.234346
5.991536
3.854437
1.981423
2.631741
4.333742
1.298278
6.185517
2.965927
6.282616
2.090623
3.559129
4.197276
2.512348
5.969630
3.083962
3.706950
5.896308
5.008337
1.226375
5.543285
1.349174
3.530108
6.170050
6.515320
2.422760
2.663987
6.364172
2.760734
2.531248
2.847817
3.296823
1.863657
2.023322
2.437209
3.701788
1.777604
2.267739
1.386557
2.227853
2.265850
1.627570
2.006081
2.178803
2.215300
3.913926
3.066086
1.830490
2.001881
2.824572
3.411897
2.255099
2.569074
2.250252
3.241100
3.633179
4.928366
2.464081
3.056311
4.833915
5.237199
1.908538
2.193434
1.584278
3.999154
1.347373
2.308320
1.272500
2.485904
2.583209
0.569647
6.537580
1.950518
3.312728
1.590612
0.912783
3.002125
1.853992
3.077701
2.140602
6.551784
2.310357
6.553501
2.685982
2.319201
1.798585
3.353357
1.573860
2.688451
1.823051
2.065201
1.748051
2.936014
3.858620
4.002162
1.869879
2.345387
5.589440
2.481924
2.983872
3.346959
1.885341
4.237950
4.530456
2.126077
1.901286
2.198750
1.582340
3.640404
5.603394
2.564736
1.318902
3.065514
6.331818
4.624301
3.070983
1.231431
5.340062
2.973846
1.780291
2.784315
6.583937
1.341089
6.309795
2.467092
3.443371
2.938760
2.534674
6.709384
1.464124
6.577416
3.006501
3.570001
2.201481
2.525099
2.432502
3.770124
1.573957
2.177016
2.013290
3.961054
1.474598
5.972573
1.771245
5.450614
3.819615
4.682807
2.391218
4.421710
3.083539
5.623077
1.575088
4.751166
5.183243
3.439374
6.045183
2.812464
2.610332
1.751224
4.965272
2.069815
5.113738
2.709330
5.693289
4.065109
5.206117
4.204178
3.552879
6.141511
2.794789
1.892610
1.059730
4.652540
2.618597
6.347252
1.763659
6.510250
3.978530
3.388390
6.174431
2.131767
2.629570
3.206488
5.957946
3.396702
1.054027
5.357668
1.124853
5.892970
6.378807
3.176482
2.139432
6.810382
6.569403
2.321205
2.460264
2.767813
3.348420
2.683638
1.984710
1.826451
2.368874
1.511719
3.937659
1.455272
2.306165
2.212833
2.106815
2.041110
2.108263
2.017105
2.868488
3.935762
2.046860
1.685470
2.064646
3.551844
2.133552
2.669366
2.885019
3.478877
3.340044
4.832306
3.136447
2.340145
5.221373
4.702237
2.386532
1.846426
4.291338
1.307546
2.176836
1.330464
2.318737
1.339033
0.940284
2.513470
1.783290
6.878602
1.686996
3.242384
2.990422
0.898609
3.281379
1.732066
6.891038
2.039827
6.873726
2.097822
1.929755
1.784539
2.512539
3.625014
1.361357
0.551072
1.943907
2.015876
3.186366
1.575984
3.864242
3.566256
3.955114
3.714655
2.448299
5.339465
2.140980
2.163417
1.959545
1.908815
1.835130
1.902589
4.941851
2.195483
2.232763
3.963718
1.978794
4.116104
1.997473
4.086258
0.960459
3.460372
1.610141
5.323682
1.915128
1.557483
3.826613
6.075667
3.232560
1.540717
2.986384
5.944343
2.589744
6.509945
3.671741
2.833608
1.369807
2.506735
6.329460
3.101564
6.666810
3.802463
2.323635
1.500884
3.412524
1.917669
3.877178
1.776366
1.952768
3.292564
2.461372
2.423911
6.282817
3.351611
5.703072
2.750221
3.108760
1.602418
4.429767
1.768165
4.703779
1.536084
5.498105
2.721824
1.293693
3.904565
1.987013
5.299230
2.834664
1.943666
2.195452
5.174052
1.672218
4.669023
0.390720
3.747645
1.194569
3.104771
4.675872
1.086610
2.043436
4.338129
5.850503
3.231959
5.786715
2.463071
6.523308
3.496944
1.943699
3.134464
2.803120
5.987583
1.674639
2.410030
1.263358
4.655532
6.136035
3.463682
6.351049
3.609809
1.847080
5.351464
6.613919
3.564361
3.069965
6.276112
3.019027
2.106317
1.957964
3.202852
2.893390
2.142388
2.499840
5.218152
2.566552
1.890074
3.082783
2.116108
2.933712
2.825570
3.421637
1.905354
3.480593
1.768819
2.416227
2.061084
4.324918
1.901160
3.917003
1.860106
2.611674
2.127199
2.674137
2.139633
1.881759
3.624098
1.516540
2.582451
2.157620
4.491056
2.884249
5.632170
4.527841
2.080476
3.589928
1.758100
1.757223
4.063723
6.808754
3.953035
1.431584
3.219986
3.555754
1.668399
2.248710
4.771138
4.008076
6.878555
3.894659
6.830130
1.724894
4.996692
2.539812
5.447719
2.895478
1.945061
4.616754
2.163996
2.510184
5.102896
2.215454
1.538787
2.486267
1.232718
2.336423
2.283072
1.142475
1.835849
1.976589
1.966593
2.040118
3.318607
2.518277
2.108403
1.457158
2.242490
2.246439
2.946998
2.050833
2.200664
3.771990
2.421718
3.539118
1.418406
3.853678
2.263959
2.286170
4.490200
3.861627
3.402065
1.554068
0.832891
2.352442
2.858163
2.786772
4.215815
3.285199
3.508470
1.188037
1.782875
2.258073
1.245632
0.988936
2.066623
2.344531
1.995625
4.263452
2.202193
4.804754
2.623268
2.433777
2.169492
2.148562
2.624657
4.773635
5.245229
5.010411
3.293753
1.222400
2.419385
2.695544
2.267606
2.449248
2.289132
2.044781
2.264881
3.780100
2.005795
2.338969
2.452886
2.104815
2.317894
2.559815
5.069017
3.321693
4.700278
2.939978
2.759099
2.194240
1.949396
4.358353
1.644330
1.958205
2.417734
1.003620
2.153839
2.282930
2.087892
2.669287
0.325680
1.059185
2.878082
2.453928
1.608744
4.444914
5.154701
3.591285
4.350068
2.911288
2.092937
2.231091
1.716159
0.206909
2.347751
1.427487
2.358328
2.207960
1.940359
2.278205
5.314011
1.959086
5.251343
5.750118
2.626462
2.946229
2.167748
4.166219
5.188972
2.518300
2.216807
3.232060
0.682736
1.994231
1.521836
1.719994
2.247148
2.528551
3.639547
2.103879
3.216307
2.282507
2.613115
2.107658
2.037914
5.669063
5.455779
2.664087
2.880989
1.447324
0.672369
3.594262
3.661737
2.361608
5.227645
3.270183
4.568508
4.322634
2.719692
2.437188
3.260569
1.397026
1.505748
2.323674
2.224933
2.062649
2.186778
2.228979
1.826237
2.403451
1.643921
2.271150
2.218398
2.040753
4.084429
3.983323
1.088023
3.571397
4.982265
1.229711
3.912258
2.380367
1.979235
1.666911
2.256737
1.688157
2.446180
2.343721
2.064332
1.952685
0.655614
2.200988
3.289347
2.503957
2.203732
2.786731
2.239607
2.205120
5.999028
5.882398
2.441025
2.251444
2.683194
4.270966
2.665379
5.117921
2.415382
4.641172
2.363052
3.437292
2.880498
2.348146
2.322538
4.530168
3.946959
5.491518
1.091711
2.334095
2.425972
1.323382
2.248149
5.311445
2.230138
5.777736
3.001041
2.684090
4.652468
4.422967
2.955463
3.993946
5.612605
5.000704
2.242446
2.330772
2.343284
3.750660
3.031240
2.078204
4.979629
5.033566
2.314651
1.640394
2.423071
2.246677
3.688335
2.232383
2.421257
2.138841
2.062275
2.367199
6.139218
5.895847
1.785898
3.692568
2.396088
4.287042
2.616977
1.964361
5.737045
1.803615
2.186045
5.910961
5.421216
3.754445
2.316322
1.808719
1.390366
2.431150
4.494974
1.638573
3.495918
1.468734
3.169464
2.159854
2.388589
3.419955
1.843722
2.524440
2.189729
2.160405
0.817229
2.297625
0.851379
1.879152
4.469905
2.163601
2.488621
5.095784
3.775516
4.219428
4.753126
2.290248
3.478406
4.118500
2.769156
4.806329
1.703981
3.013171
2.337512
2.349062
5.622614
2.306811
2.270668
2.811853
0.314255
2.850512
2.229919
2.379027
1.457563
2.186398
2.608777
3.975184
5.059047
3.024223
2.309879
1.360904
1.709605
2.241360
5.775995
3.105602
2.020388
1.757615
2.333727
0.615342
2.298799
1.772634
1.793612
2.375068
2.399701
1.306046
2.424240
2.223815
4.446079
2.591296
3.949443
3.998073
1.945513
2.288303
2.977191
3.834955
1.857703
2.228729
2.322272
4.183938
3.129621
1.802519
3.145001
4.780612
2.894553
2.410693
2.043287
2.320854
2.305070
3.244725
1.837611
2.474493
2.761556
2.058078
1.864363
2.017442
5.000662
1.945655
3.019494
1.038386
4.474563
2.918621
2.484559
2.107956
0.961940
2.204542
1.713369
3.147558
3.471400
3.901632
3.987555
0.345711
1.248154
2.281562
1.894759
2.333560
0.653840
2.112892
2.463825
3.329875
0.833021
4.534362
3.969700
2.221592
2.165545
1.925501
5.722774
2.537424
3.984019
2.297179
2.150248
4.555449
3.260348
2.436944
2.249157
3.816310
2.601386
1.091605
3.234489
3.520237
1.319366
2.067288
1.924976
2.099265
2.076879
5.986037
1.685328
2.381872
2.516034
0.873862
2.668540
2.249549
2.557926
2.620057
2.395881
4.758209
4.208394
2.407806
2.330625
2.247813
0.712446
1.384817
1.767840
1.806808
1.635042
1.748134
1.692159
1.573801
1.858265
2.219545
2.247517
2.529439
2.366242
1.934862
2.057340
2.343183
1.530038
1.848947
3.570679
2.535979
3.132366
3.610380
3.651212
2.787870
3.697067
3.563726
3.260442
3.564357
2.875057
3.253296
3.448800
2.766885
3.069828
3.188251
2.654195
2.150292
2.049359
3.881918
3.772142
3.457283
3.116564
3.236842
2.623974
2.571889
0.934974
2.342163
2.744342
2.517005
3.316878
2.060633
2.653586
0.285957
1.099540
1.224276
2.022128
1.886194
1.992936
2.406620
1.986514
1.819965
3.759494
1.905326
3.332420
1.067762
2.114844
2.958188
1.310702
0.860873
0.525507
0.735380
2.790389
1.748850
4.493008
5.226862
4.608998
3.770456
2.806298
2.950664
2.745334
2.647242
4.557352
5.115771
4.824505
2.699612
2.064063
1.723324
1.936060
2.365046
1.543965
3.320807
2.342323
0.529812
1.383113
2.220617
2.932885
1.707372
1.986750
2.062694
2.295946
2.091724
2.669864
1.604340
2.050237
1.580934
1.629782
2.206559
2.820402
2.050725
3.009590
1.711224
2.921726
2.851734
3.548277
2.805021
3.438249
2.218662
2.742582
2.316909
2.294505
1.685467
2.359570
1.586922
1.463687
5.773128
1.980631
1.852333
1.776861
0.701173
3.359738
3.573207
3.456462
3.839573
2.606888
3.711562
2.902965
2.539981
1.759862
1.870764
1.991754
2.134647
2.073758
1.715951
2.046652
2.298040
1.881275
2.166460
2.352958
4.545012
2.994163
1.897906
1.385517
2.186740
1.875541
1.822659
2.791102
1.690391
1.082026
3.200888
2.979600
2.040111
2.238949
2.490018
4.578529
1.737402
1.753570
1.723166
1.671374
1.662195
2.314843
3.570158
3.677415
4.776631
0.500685
3.376176
2.136706
2.528572
2.144693
2.117016
2.549695
1.746298
1.812552
1.878217
1.748429
1.863661
1.828955
1.761765
2.022743
3.230745
3.897007
3.724639
2.378246
2.752024
3.635469
3.475601
3.643732
1.924464
3.857085
3.382820
4.284240
4.202460
2.920202
1.080898
2.378196
2.132839
2.197862
1.706605
1.999626
1.659860
1.752836
0.527194
2.172443
2.235521
4.592735
0.352038
2.543596
0.353647
1.238614
0.975506
1.196349
0.482906
2.318526
1.897980
1.891989
1.507322
0.962566
1.259339
3.227572
4.310006
3.372220
1.864460
4.645620
2.633770
1.770787
3.658622
2.690302
2.679826
1.742729
3.343452
3.084384
0.993422
1.822350
1.094162
3.061078
1.881131
0.933022
1.058369
0.908183
3.354337
2.071598
3.090013
2.617724
1.939892
1.790821
1.661958
1.458391
1.753595
1.978442
2.492522
2.094490
2.382253
3.504365
2.485768
2.999804
3.902296
5.824454
5.816467
4.902780
5.861123
4.887355
5.732942
5.917015
5.730055
3.779554
3.835787
3.440728
3.399241
3.786869
3.887367
3.910957
2.308567
2.155298
2.019008
1.867324
1.908438
1.769726
1.747666
1.787311
1.587144
2.406916
2.543500
2.357320
2.300109
5.096733
4.328824
5.227929
4.491815
3.632564
3.060934
4.627165
1.773382
2.588951
3.913430
4.496591
3.370939
4.632834
1.679608
1.888969
1.475776
1.487472
1.783598
1.915532
2.429286
1.891213
2.146665
2.173772
1.954732
2.865467
2.764271
2.496692
3.323591
3.187264
1.838354
2.981539
0.561012
1.753390
2.557295
2.131104
1.061427
0.832146
3.753481
1.524932
2.363331
1.082630
0.969590
1.621404
2.471718
2.274891
1.675276
2.481042
2.636932
1.573934
1.582469
3.162622
1.633860
1.628109
1.161662
1.249723
2.491447
2.743990
1.618861
1.484210
1.911847
1.732256
1.860806
2.396913
1.445645
2.043326
2.242834
1.643750
1.802710
1.659391
0.729754
0.804060
0.114960
1.429600
1.896816
2.681856
3.326027
2.987335
2.870170
1.739274
1.858889
1.632432
1.785817
2.059132
2.244130
0.581014
0.575366
2.860215
2.131954
2.631853
4.997067
2.881672
1.902150
1.705523
1.814967
2.072929
2.045988
3.377366
2.226974
3.172626
3.530664
4.035666
3.646178
1.822648
1.955671
1.842104
1.863579
1.404421
2.210591
0.735463
1.844195
0.797893
1.067634
0.269211
0.656107
1.945925
2.352396
2.096269
1.738960
1.978970
3.556059
1.537108
1.417507
1.901706
1.690871
2.048463
1.904432
2.035317
2.135927
2.097865
2.121124
2.019201
2.075551
2.366414
1.017117
2.004537
1.905084
1.926520
3.868876
1.878834
2.118038
1.887451
2.053431
2.721817
1.992383
1.933771
4.056765
4.260082
3.227490
3.081308
1.676714
1.773436
1.691308
3.239449
1.879865
4.924218
1.971098
1.949346
3.099124
0.330851
0.947109
0.372509
2.155929
1.770790
1.655505
4.944479
1.187027
1.900798
1.889946
1.850505
2.071595
1.040266
1.146493
2.305549
2.173745
1.979704
1.970862
2.027906
0.964132
4.418969
2.132047
2.146191
2.369071
2.180114
3.745069
1.842218
1.748170
1.732713
2.465931
1.822996
1.777063
1.354945
1.345275
2.352481
3.040300
2.254513
2.855903
2.119454
2.498807
3.024733
3.266412
1.809066
1.776366
2.268679
2.186812
2.747318
3.284147
2.920017
4.261250
3.409554
3.642606
3.196224
2.601135
3.279023
3.513634
2.765042
2.197777
1.892684
2.120839
1.435066
1.601269
1.590489
1.918979
1.380615
1.140510
0.850048
2.793451
1.252625
2.985508
2.039450
1.907600
1.673383
1.881396
1.979715
1.315638
1.461145
1.530784
1.664853
0.604623
1.064860
0.943521
1.213857
1.452599
1.828171
3.027727
1.582352
1.578663
1.788045
1.988904
2.301530
1.628980
1.866631
2.134908
1.835508
1.850073
0.934146
3.008988
3.114352
1.968316
1.942869
2.133531
3.997123
5.024204
4.126866
4.022916
2.561729
3.400960
2.414492
1.809882
1.615441
2.167474
4.367058
2.094793
2.191816
2.022548
1.965219
2.002334
3.830086
3.389704
3.884851
3.916895
3.791494
1.930299
2.155234
1.047018
0.516534
1.936099
2.000045
2.176590
2.221499
3.625070
4.290638
4.165626
3.307591
1.907079
1.864678
3.990433
2.052859
2.414373
1.603346
4.008221
2.105460
2.141980
4.946222
1.300164
1.623402
2.610616
3.200988
2.492611
2.020522
1.988363
2.036553
2.049350
2.114564
5.129165
5.012607
1.992764
1.936459
2.649947
1.882816
1.832944
2.997023
3.059826
1.649258
2.338128
1.869172
1.768798
2.252380
2.232663
2.447184
1.584065
1.502871
1.488346
2.892268
2.751985
2.070267
2.379907
2.222058
2.302351
4.048479
2.892436
3.020561
1.991994
2.091108
2.534278
2.793046
2.248010
2.356207
1.253188
1.506808
3.783197
1.953717
2.235188
1.995686
2.169978
1.886980
3.957734
3.830032
1.611137
4.316157
4.184091
1.700556
1.759747
1.760363
1.799659
1.604105
1.612167
1.780404
1.799669
2.170619
2.241787
1.964777
1.979046
2.071648
1.917848
0.421373
1.029522
2.168507
2.433221
2.041912
1.781402
1.743324
4.132172
1.852397
4.086056
4.244330
3.900034
2.833717
2.146747
1.880854
2.091524
1.236113
1.977173
1.281290
0.813768
0.943407
0.398032
2.247025
2.004604
2.099072
1.908458
2.162157
2.086347
1.846841
1.629368
1.947909
0.825604
5.013631
4.886326
3.499168
1.607607
4.921911
3.087801
2.330243
2.619803
4.952946
4.040793
1.847275
1.901087
4.932695
1.935033
1.862648
2.534149
1.305032
1.344507
1.908500
1.773005
4.784066
3.399905
1.902182
1.506384
1.616905
2.077551
0.926069
0.862168
2.433234
2.055560
2.209240
1.840610
1.892231
3.230754
1.451560
1.703748
0.952926
1.157531
0.969849
2.082736
4.181662
2.920841
2.864554
1.708611
1.711695
2.585400
2.648307
2.526039
2.079590
2.934766
2.377753
2.160590
2.192652
2.146960
2.765702
2.476851
2.434702
2.128932
2.545785
2.294917
2.526660
2.225872
2.119323
2.078120
2.307891
2.168966
2.204998
2.891228
3.042515
2.990107
2.940808
2.480538
2.975545
3.132602
2.963171
2.782780
2.886603
2.307678
2.330548
2.381884
2.262230
2.042449
2.274307
2.096102
2.695998
2.690310
2.351689
1.834933
1.916970
1.793414
2.446592
0.598554
0.379360
0.926447
1.267360
1.945967
2.026245
1.971678
1.930724
2.043724
1.808930
2.468102
2.475326
1.881481
1.812069
1.978762
1.909073
1.928202
0.290130
0.553403
0.407299
0.679565
2.835992
2.628533
1.355746
0.717192
1.044087
0.733246
1.638664
2.059650
1.691276
1.939580
1.978657
1.416354
2.151022
1.453736
1.208202
1.219861
1.468179
1.527928
1.768107
1.843421
2.261122
1.805715
1.536179
1.420052
1.743299
1.745427
