# vtk DataFile Version 2.0
Unstructured Grid Example
ASCII
DATASET UNSTRUCTURED_GRID
POINTS 2044 float
0.993149 0.000596 -0.029609 
0.090987 1.000027 -0.004366 
-1.000804 0.003600 0.031787 
0.096162 -1.002937 -0.000268 
-0.057434 0.000051 1.001277 
0.990845 -0.089570 -0.028715 
0.980492 -0.178100 -0.028607 
0.959926 -0.265413 -0.029677 
0.934683 -0.351565 -0.028207 
0.899788 -0.435446 -0.026856 
0.858852 -0.515709 -0.026136 
0.810407 -0.592733 -0.024432 
0.754780 -0.665620 -0.021938 
0.691651 -0.732787 -0.019217 
0.622061 -0.793994 -0.015992 
0.546587 -0.848749 -0.013216 
0.464658 -0.896819 -0.010315 
0.378571 -0.936872 -0.006985 
0.287363 -0.967522 -0.005060 
0.192972 -0.990771 -0.002633 
-0.002852 -1.006223 0.001493 
-0.102182 -0.999884 0.004000 
-0.200559 -0.981700 0.005907 
-0.298567 -0.954851 0.007722 
-0.393837 -0.917350 0.010289 
-0.485245 -0.869906 0.012443 
-0.573017 -0.813834 0.014891 
-0.654826 -0.748243 0.018315 
-0.730221 -0.674700 0.021440 
-0.797763 -0.593814 0.022608 
-0.857199 -0.505223 0.025188 
-0.907555 -0.411152 0.027142 
-0.947596 -0.312211 0.029235 
-0.976251 -0.209312 0.030888 
-0.993421 -0.103315 0.030698 
-0.994093 0.110672 0.031397 
-0.976781 0.216585 0.030588 
-0.947297 0.319048 0.029524 
-0.907104 0.417558 0.027600 
-0.857873 0.511199 0.025682 
-0.800439 0.599449 0.024772 
-0.732899 0.680357 0.022547 
-0.657915 0.753920 0.019142 
-0.576542 0.818583 0.017435 
-0.489769 0.874091 0.015057 
-0.397926 0.919508 0.010927 
-0.302808 0.956131 0.006799 
-0.205136 0.981741 0.004602 
-0.106095 0.998419 0.001402 
-0.007357 1.004725 -0.001051 
0.187430 0.986248 -0.006924 
0.281745 0.964215 -0.008864 
0.372856 0.934197 -0.011323 
0.459099 0.895066 -0.014572 
0.541631 0.847886 -0.015581 
0.617686 0.793227 -0.017701 
0.687448 0.732196 -0.020061 
0.751542 0.665576 -0.021382 
0.809003 0.594456 -0.022175 
0.857403 0.517116 -0.023924 
0.899842 0.436814 -0.025098 
0.934326 0.353021 -0.026452 
0.960124 0.266672 -0.027365 
0.978361 0.178109 -0.028437 
0.989908 0.088974 -0.028301 
0.989589 -0.000096 0.073538 
0.972707 0.000329 0.175462 
0.945996 0.000007 0.275044 
0.909121 -0.000939 0.371097 
0.863389 -0.001235 0.462388 
0.806612 -0.000795 0.549374 
0.744265 -0.000582 0.631476 
0.672977 -0.001254 0.705323 
0.595579 -0.000537 0.774646 
0.510798 -0.000957 0.833210 
0.422446 -0.001032 0.884949 
0.331653 -0.001256 0.928789 
0.236235 -0.000860 0.960898 
0.139257 -0.001309 0.984184 
0.040862 -0.000695 0.997962 
-0.055671 0.098027 0.995820 
-0.049332 0.195149 0.980804 
-0.039697 0.290556 0.957000 
-0.029924 0.383489 0.924211 
-0.017762 0.472552 0.882446 
-0.004116 0.557143 0.831779 
0.010508 0.635921 0.772580 
0.024758 0.709120 0.706087 
0.038684 0.774903 0.632997 
0.051680 0.833438 0.553955 
0.063946 0.883795 0.469034 
0.074959 0.925132 0.380153 
0.083767 0.957739 0.287710 
0.090016 0.981060 0.192119 
0.092258 0.995929 0.094303 
-0.154682 0.000252 0.994075 
-0.250694 -0.000013 0.977887 
-0.344178 -0.000281 0.953068 
-0.432862 0.000660 0.920845 
-0.517071 0.000529 0.879529 
-0.595803 0.001127 0.829615 
-0.668599 0.000044 0.772360 
-0.735080 0.000907 0.707769 
-0.796168 0.001905 0.637772 
-0.849268 0.002317 0.561750 
-0.895434 0.002590 0.481068 
-0.932289 0.003076 0.395165 
-0.962638 0.003614 0.307227 
-0.982911 0.004089 0.216575 
-0.994999 0.003319 0.124879 
-0.055848 -0.098081 0.996909 
-0.050492 -0.196091 0.982553 
-0.043163 -0.291513 0.958762 
-0.031250 -0.383215 0.924416 
-0.017909 -0.473302 0.882489 
-0.003095 -0.557331 0.831820 
0.013151 -0.636048 0.773215 
0.028309 -0.708541 0.706662 
0.042449 -0.775376 0.634389 
0.056285 -0.834403 0.555476 
0.069161 -0.885532 0.470906 
0.080214 -0.927533 0.382558 
0.088482 -0.960417 0.290123 
0.094468 -0.983980 0.195408 
0.097158 -0.998335 0.097873 
0.773630 0.415749 0.452167 
0.310301 0.358757 0.865324 
0.402850 0.838810 0.367648 
0.892023 0.297368 0.302086 
0.932344 0.245633 0.221983 
0.950879 0.188597 0.195580 
0.969962 0.179178 0.110760 
0.572449 0.756251 0.311092 
0.492270 0.301795 0.793893 
0.298564 0.660810 0.676889 
0.754962 0.589513 0.275841 
0.707009 0.266790 0.626849 
0.789022 0.589111 0.173419 
0.739036 0.170666 0.619283 
0.202718 0.521877 0.818723 
0.259356 0.804254 0.530069 
0.858400 0.468206 0.195676 
0.813026 0.190640 0.510901 
0.111520 0.411439 0.898866 
0.204775 0.887912 0.413562 
0.442777 0.726268 0.513708 
0.397115 0.495732 0.754211 
0.497164 0.861490 0.141965 
0.380044 0.144899 0.896414 
0.904384 0.396229 0.135953 
0.879889 0.162171 0.407908 
0.057589 0.342108 0.936714 
0.169112 0.926982 0.340273 
0.366462 0.930310 0.102989 
0.231073 0.108123 0.955639 
0.942766 0.315682 0.064248 
0.919917 0.084248 0.336943 
0.577357 0.551697 0.580990 
0.044343 0.277521 0.957584 
0.168588 0.948635 0.275255 
0.311363 0.952246 0.077007 
0.171559 0.082255 0.974149 
0.957652 0.099513 0.214553 
0.963531 0.243699 0.047183 
0.980344 0.087935 0.116018 
0.645526 0.400447 0.626561 
0.676242 0.588993 0.420555 
0.561194 0.684116 0.451221 
0.515368 0.431892 0.719945 
0.783910 0.511845 0.333375 
0.749996 0.322208 0.548103 
0.712688 0.469079 0.497687 
0.401810 0.622671 0.656751 
0.282938 0.176779 0.929233 
0.408054 0.901271 0.176498 
0.460475 0.850130 0.263774 
0.354980 0.258709 0.881322 
0.366347 0.701866 0.599811 
0.341385 0.581869 0.723863 
0.514268 0.740327 0.422468 
0.452507 0.406646 0.775100 
0.257186 0.453419 0.842715 
0.329553 0.820863 0.462769 
0.540925 0.809961 0.234554 
0.442383 0.230915 0.847115 
0.299834 0.516874 0.788679 
0.349440 0.766396 0.530848 
0.205125 0.396327 0.886883 
0.296582 0.865986 0.402078 
0.856012 0.402362 0.299091 
0.853018 0.249156 0.420265 
0.402240 0.329919 0.835071 
0.489991 0.801864 0.340103 
0.424803 0.787628 0.438857 
0.355051 0.424834 0.815782 
0.102663 0.566460 0.813646 
0.151493 0.806334 0.570019 
0.245061 0.742766 0.614287 
0.217027 0.604429 0.756732 
0.062313 0.484945 0.869519 
0.138097 0.863933 0.485809 
0.624601 0.282606 0.703385 
0.684658 0.662499 0.292115 
0.567691 0.827829 0.059553 
0.455270 0.068452 0.866357 
0.255633 0.903084 0.347308 
0.149022 0.344975 0.920668 
0.304860 0.938660 0.181343 
0.171210 0.183065 0.958634 
0.459513 0.652112 0.587578 
0.425619 0.550725 0.699460 
0.227751 0.285308 0.921007 
0.340877 0.897166 0.288406 
0.921042 0.185177 0.296580 
0.921722 0.321022 0.178030 
0.157581 0.475442 0.857663 
0.230836 0.845298 0.480696 
0.499267 0.872718 0.043287 
0.375420 0.053385 0.906915 
0.435603 0.903738 0.073183 
0.305415 0.080151 0.934659 
0.036284 0.419997 0.905680 
0.130370 0.900376 0.418883 
0.199000 0.964412 0.192513 
0.061057 0.194312 0.975254 
0.116458 0.272176 0.949479 
0.239469 0.933695 0.271959 
0.613197 0.469653 0.613429 
0.632233 0.578751 0.494412 
0.574264 0.624637 0.509880 
0.549459 0.486156 0.658869 
0.732333 0.395912 0.528332 
0.754802 0.487662 0.415484 
0.652073 0.508979 0.538965 
0.615275 0.759279 0.217907 
0.527276 0.214898 0.800159 
0.827570 0.468767 0.290842 
0.801108 0.285793 0.491983 
0.693098 0.535590 0.458157 
0.677168 0.434995 0.570572 
0.777341 0.352631 0.490225 
0.695577 0.357944 0.595036 
0.727799 0.559545 0.375246 
0.513116 0.676150 0.513032 
0.478135 0.491486 0.707757 
0.830530 0.345009 0.400980 
0.806937 0.441455 0.367695 
0.888339 0.220377 0.361078 
0.952820 0.243295 0.134910 
0.611612 0.694425 0.366395 
0.552285 0.351592 0.733255 
0.633515 0.344191 0.666995 
0.680094 0.628059 0.360156 
0.527355 0.613847 0.569223 
0.490640 0.570547 0.641397 
0.197632 0.683870 0.694045 
0.624200 0.634973 0.436328 
0.586244 0.415530 0.672298 
0.112154 0.658631 0.740195 
0.128246 0.733751 0.664149 
0.726246 0.653634 0.209188 
0.660335 0.207023 0.694121 
0.988197 0.075074 0.037485 
0.494137 0.143181 0.834126 
0.597629 0.794970 0.140609 
0.715040 0.078392 0.661293 
0.782306 0.624278 0.067398 
0.768810 0.247917 0.558124 
0.809573 0.528904 0.243620 
0.833334 0.547219 0.092422 
0.778169 0.087129 0.583388 
0.083131 0.088334 0.988424 
0.227701 0.974886 0.083969 
0.884349 0.069411 0.418887 
0.914387 0.398304 0.050646 
0.881862 0.465314 0.070536 
0.842277 0.085549 0.494121 
0.889286 0.382206 0.223963 
0.581828 0.246919 0.750098 
0.656572 0.709519 0.252907 
0.151835 0.991299 0.055485 
0.003607 0.059590 0.998237 
0.007968 0.126649 0.990877 
0.152913 0.985000 0.124095 
0.720142 0.697133 0.057420 
0.637405 0.069249 0.737791 
0.647744 0.764993 0.059130 
0.550423 0.069977 0.806947 
0.753518 0.648732 0.124227 
0.682521 0.129840 0.688599 
0.677570 0.722928 0.151818 
0.592724 0.154024 0.764410 
0.824495 0.535561 0.177188 
-0.454600 0.482933 0.768024 
-0.304592 0.896784 0.341615 
-0.854128 0.408255 0.352175 
-0.361831 0.334419 0.885979 
-0.289659 0.287827 0.925321 
-0.259184 0.211810 0.952487 
-0.212861 0.136070 0.975790 
-0.270922 0.819325 0.520215 
-0.796370 0.349784 0.526112 
-0.635451 0.725214 0.288297 
-0.272704 0.649324 0.722987 
-0.650355 0.309379 0.722837 
-0.173194 0.636429 0.761018 
-0.667475 0.205148 0.745552 
-0.467861 0.862038 0.218025 
-0.790093 0.577639 0.226106 
-0.214512 0.532176 0.829283 
-0.530620 0.232927 0.837848 
-0.339193 0.934446 0.142516 
-0.877961 0.455598 0.157688 
-0.735601 0.558708 0.412675 
-0.467596 0.794712 0.407587 
-0.084297 0.907148 0.422580 
-0.900103 0.171489 0.434639 
-0.182240 0.449404 0.884021 
-0.463825 0.170735 0.889592 
-0.260754 0.964719 0.096370 
-0.919966 0.377545 0.116452 
-0.028484 0.963228 0.281392 
-0.955314 0.127137 0.299986 
-0.400246 0.097044 0.929689 
-0.123767 0.357395 0.930571 
-0.564872 0.620590 0.567802 
-0.192667 0.981134 0.088617 
-0.946189 0.308333 0.111154 
0.002687 0.979319 0.223308 
-0.972262 0.097932 0.245114 
-0.285827 0.112006 0.964183 
-0.153292 0.227839 0.969002 
-0.212463 0.061058 0.984397 
-0.409351 0.656797 0.652433 
-0.630371 0.459388 0.653264 
-0.418540 0.753228 0.527022 
-0.710813 0.493049 0.530388 
-0.566917 0.368003 0.762268 
-0.343720 0.574357 0.757805 
-0.500659 0.531125 0.705195 
-0.610786 0.702611 0.392148 
-0.106955 0.943965 0.328498 
-0.928338 0.206735 0.343515 
-0.202796 0.903340 0.392421 
-0.879679 0.299787 0.403380 
-0.553883 0.768716 0.342300 
[...]
POINT_DATA 2044
SCALARS u float 1
LOOKUP_TABLE default
2.157875
6.466533
2.271673
6.829686
4.078174
2.147037
2.362023
2.756965
3.078594
3.428839
3.902357
4.336200
4.748988
5.151354
5.535838
5.909049
6.171768
6.446389
6.627429
6.750633
6.801838
6.739364
6.620928
6.386835
6.097021
5.757501
5.338561
4.898212
4.441922
3.958753
3.470362
3.023191
2.677691
2.435329
2.214972
2.404312
2.669130
3.005098
3.374354
3.771195
4.200942
4.617052
5.008507
5.372566
5.667216
5.909673
6.134076
6.304293
6.441313
6.471849
6.397884
6.294549
6.132877
5.889068
5.649810
5.328569
4.960627
4.576738
4.128480
3.704785
3.289411
2.917193
2.575799
2.357530
2.142129
1.782609
1.506971
1.331997
1.333668
1.465443
1.819476
2.051493
2.427795
2.758106
3.181470
3.482361
3.640402
3.847719
3.971958
4.062506
3.952338
3.502027
2.818151
2.125192
1.264149
0.313527
0.754424
1.764845
2.751222
3.673189
4.544543
5.325026
5.949644
6.393656
6.554867
4.023395
3.952593
3.835777
3.568967
3.247050
2.860244
2.428691
1.987427
1.666807
1.347541
1.193881
1.090500
1.294579
1.559879
1.921448
3.966482
3.587259
3.068071
2.219056
1.279167
0.254023
0.941059
2.012492
3.018089
4.001073
4.916532
5.700256
6.286144
6.710068
6.900785
2.234838
2.279382
4.910307
2.032160
1.980939
1.850478
1.982921
4.608806
2.336721
1.995629
3.653676
1.810600
3.915477
1.794880
0.981004
3.707315
3.187137
1.776700
1.814007
4.927479
3.459480
1.623916
5.741393
3.169465
2.896564
1.557380
2.420106
5.540260
6.190193
3.683134
2.655252
1.465587
2.438274
2.903805
5.954963
6.304228
3.801005
1.609856
2.390415
1.756194
1.968124
3.241790
3.581340
1.894999
3.037569
1.837475
2.412180
2.119723
3.290465
5.959373
5.383114
2.744794
2.773466
1.535710
4.022543
1.907762
1.509416
4.263150
5.198506
2.675241
1.310129
3.524524
1.953757
4.885229
2.522137
1.837545
2.365636
4.811093
4.220678
1.841162
0.439956
3.406556
2.767405
1.096462
1.117859
4.315663
1.994580
4.092195
5.566149
3.153522
5.380941
2.372588
6.184556
3.488261
2.682474
1.790039
2.730200
5.613379
1.713450
2.403541
1.231785
4.255137
5.822548
3.509086
6.016593
3.622915
1.751514
4.951248
6.324770
3.527000
2.969705
5.885030
2.092009
2.895301
3.022361
2.017128
2.024489
2.697011
2.447246
4.953952
2.430911
2.915121
1.826108
2.866280
2.051645
1.988405
1.958458
3.210397
3.236112
1.837192
2.169140
2.547404
1.752741
2.152371
3.984465
2.056332
2.013427
3.638148
2.670652
2.112197
1.843478
3.400997
2.014264
1.217640
2.274574
4.258613
1.993988
1.972348
2.875564
5.352008
2.011827
4.303827
1.688956
3.377575
3.786394
1.838685
3.899725
6.441054
1.449173
3.044493
3.371069
1.502784
2.596486
2.207492
4.515976
6.499061
4.047096
3.825121
6.485894
4.757650
2.378325
5.181416
2.755194
4.387484
2.058166
4.850969
2.386664
3.600478
1.826253
5.466539
2.703661
2.382157
2.720985
3.195695
3.702252
4.017381
2.149442
4.571085
1.772517
2.245666
1.236635
2.260008
5.623995
3.909557
1.064033
2.665508
6.156418
3.406525
3.270807
4.573618
5.069991
1.550050
1.604348
3.058258
6.322742
3.119288
6.006689
1.623760
3.548144
2.313985
2.952905
6.427429
2.838838
6.287561
1.691233
3.741136
3.244866
3.969331
2.494967
2.280303
3.683248
2.654270
2.197046
1.593119
2.083312
4.114658
5.709575
1.863823
5.252848
2.116624
4.687054
3.952963
4.298324
2.708362
5.567710
3.362060
4.541717
1.877914
3.664441
5.174506
3.138165
5.912832
1.696196
2.293914
2.410126
4.837812
3.008183
5.060409
4.279612
5.681683
4.397497
5.234346
5.991536
3.854437
1.981423
2.631741
4.333742
1.298278
6.185517
2.965927
6.282616
2.090623
3.559129
4.197276
2.512348
5.969630
3.083962
3.706950
5.896308
5.008337
1.226375
5.543285
1.349174
3.530108
6.170050
6.515320
2.422760
2.663987
6.364172
2.760734
2.531248
2.847817
3.296823
1.863657
2.023322
2.437209
3.701788
1.777604
2.267739
1.386557
2.227853
2.265850
1.627570
2.006081
2.178803
2.215300
3.913926
3.066086
1.830490
2.001881
2.824572
3.411897
2.255099
2.569074
2.250252
3.241100
3.633179
4.928366
2.464081
3.056311
4.833915
5.237199
1.908538
2.193434
1.584278
3.999154
1.347373
2.308320
1.272500
2.485904
2.583209
0.569647
6.537580
1.950518
3.312728
1.590612
0.912783
3.002125
1.853992
3.077701
2.140602
6.551784
2.310357
6.553501
2.685982
2.319201
1.798585
3.353357
1.573860
2.688451
1.823051
2.065201
1.748051
2.936014
3.858620
4.002162
1.869879
2.345387
5.589440
2.481924
2.983872
3.346959
1.885341
4.237950
4.530456
2.126077
1.901286
2.198750
1.582340
3.640404
5.603394
2.564736
1.318902
3.065514
6.331818
4.624301
3.070983
1.231431
5.340062
2.973846
1.780291
2.784315
6.583937
1.341089
6.309795
2.467092
3.443371
2.938760
2.534674
6.709384
1.464124
6.577416
3.006501
3.570001
2.201481
2.525099
2.432502
3.770124
1.573957
2.177016
2.013290
3.961054
1.474598
5.972573
1.771245
5.450614
3.819615
4.682807
2.391218
4.421710
3.083539
5.623077
1.575088
4.751166
5.183243
3.439374
6.045183
2.812464
2.610332
1.751224
4.965272
2.069815
5.113738
2.709330
5.693289
4.065109
5.206117
4.204178
3.552879
6.141511
2.794789
1.892610
1.059730
4.652540
2.618597
6.347252
1.763659
6.510250
3.978530
3.388390
6.174431
2.131767
2.629570
3.206488
5.957946
3.396702
1.054027
5.357668
1.124853
5.892970
6.378807
3.176482
2.139432
6.810382
6.569403
2.321205
2.460264
2.767813
3.348420
2.683638
1.984710
1.826451
2.368874
1.511719
3.937659
1.455272
2.306165
2.212833
2.106815
2.041110
2.108263
2.017105
2.868488
3.935762
2.046860
1.685470
2.064646
3.551844
2.133552
2.669366
2.885019
3.478877
3.340044
4.832306
3.136447
2.340145
5.221373
4.702237
2.386532
1.846426
4.291338
1.307546
2.176836
1.330464
2.318737
1.339033
0.940284
2.513470
1.783290
6.878602
1.686996
3.242384
2.990422
0.898609
3.281379
1.732066
6.891038
2.039827
6.873726
2.097822
1.929755
1.784539
2.512539
3.625014
1.361357
0.551072
1.943907
2.015876
3.186366
1.575984
3.864242
3.566256
3.955114
3.714655
2.448299
5.339465
2.140980
2.163417
1.959545
1.908815
1.835130
1.902589
4.941851
2.195483
2.232763
3.963718
1.978794
4.116104
1.997473
4.086258
0.960459
3.460372
1.610141
5.323682
1.915128
1.557483
3.826613
6.075667
3.232560
1.540717
2.986384
5.944343
2.589744
6.509945
3.671741
2.833608
1.369807
2.506735
6.329460
3.101564
6.666810
3.802463
2.323635
1.500884
3.412524
1.917669
3.877178
1.776366
1.952768
3.292564
2.461372
2.423911
6.282817
3.351611
5.703072
2.750221
3.108760
1.602418
4.429767
1.768165
4.703779
1.536084
5.498105
2.721824
1.293693
3.904565
1.987013
5.299230
2.834664
1.943666
2.195452
5.174052
1.672218
4.669023
0.390720
3.747645
1.194569
3.104771
4.675872
1.086610
2.043436
4.338129
5.850503
3.231959
5.786715
2.463071
6.523308
3.496944
1.943699
3.134464
2.803120
5.987583
1.674639
2.410030
1.263358
4.655532
6.136035
3.463682
6.351049
3.609809
1.847080
5.351464
6.613919
3.564361
3.069965
6.276112
3.019027
2.106317
1.957964
3.202852
2.893390
2.142388
2.499840
5.218152
2.566552
1.890074
3.082783
2.116108
2.933712
2.825570
3.421637
1.905354
3.480593
1.768819
2.416227
2.061084
4.324918
1.901160
3.917003
1.860106
2.611674
2.127199
2.674137
2.139633
1.881759
3.624098
1.516540
2.582451
2.157620
4.491056
2.884249
5.632170
4.527841
2.080476
3.589928
1.758100
1.757223
4.063723
6.808754
3.953035
1.431584
3.219986
3.555754
1.668399
2.248710
4.771138
4.008076
6.878555
3.894659
6.830130
1.724894
4.996692
2.539812
5.447719
2.895478
1.945061
4.616754
2.163996
2.510184
5.102896
2.215454
1.538787
2.486267
1.232718
2.336423
2.283072
1.142475
1.835849
1.976589
1.966593
2.040118
3.318607
2.518277
2.108403
1.457158
2.242490
2.246439
2.946998
2.050833
2.200664
3.771990
2.421718
3.539118
1.418406
3.853678
2.263959
2.286170
4.490200
3.861627
3.402065
1.554068
0.832891
2.352442
2.858163
2.786772
4.215815
3.285199
3.508470
1.188037
1.782875
2.258073
1.245632
0.988936
2.066623
2.344531
1.995625
4.263452
2.202193
4.804754
2.623268
2.433777
2.169492
2.148562
2.624657
4.773635
5.245229
5.010411
3.293753
1.222400
2.419385
2.695544
2.267606
2.449248
2.289132
2.044781
2.264881
3.780100
2.005795
2.338969
2.452886
2.104815
2.317894
2.559815
5.069017
3.321693
4.700278
2.939978
2.759099
2.194240
1.949396
4.358353
1.644330
1.958205
2.417734
1.003620
2.153839
2.282930
2.087892
2.669287
0.325680
1.059185
2.878082
2.453928
1.608744
4.444914
5.154701
3.591285
4.350068
2.911288
2.092937
2.231091
1.716159
0.206909
2.347751
1.427487
2.358328
2.207960
1.940359
2.278205
5.314011
1.959086
5.251343
5.750118
2.626462
2.946229
2.167748
4.166219
5.188972
2.518300
2.216807
3.232060
0.682736
1.994231
1.521836
1.719994
2.247148
2.528551
3.639547
2.103879
3.216307
2.282507
2.613115
2.107658
2.037914
5.669063
5.455779
2.664087
2.880989
1.447324
0.672369
3.594262
3.661737
2.361608
5.227645
3.270183
4.568508
4.322634
2.719692
2.437188
3.260569
1.397026
1.505748
2.323674
2.224933
2.062649
2.186778
2.228979
1.826237
2.403451
1.643921
2.271150
2.218398
2.040753
4.084429
3.983323
1.088023
3.571397
4.982265
1.229711
3.912258
2.380367
1.979235
1.666911
2.256737
1.688157
2.446180
2.343721
2.064332
1.952685
0.655614
2.200988
3.289347
2.503957
2.203732
2.786731
2.239607
2.205120
5.999028
5.882398
2.441025
2.251444
2.683194
4.270966
2.665379
5.117921
2.415382
4.641172
2.363052
3.437292
2.880498
2.348146
2.322538
4.530168
3.946959
5.491518
1.091711
2.334095
2.425972
1.323382
2.248149
5.311445
2.230138
5.777736
3.001041
2.684090
4.652468
4.422967
2.955463
3.993946
5.612605
5.000704
2.242446
2.330772
2.343284
3.750660
3.031240
2.078204
4.979629
5.033566
2.314651
1.640394
2.423071
2.246677
3.688335
2.232383
2.421257
2.138841
2.062275
2.367199
6.139218
5.895847
1.785898
3.692568
2.396088
4.287042
2.616977
1.964361
5.737045
1.803615
2.186045
5.910961
5.421216
3.754445
2.316322
1.808719
1.390366
2.431150
4.494974
1.638573
3.495918
1.468734
3.169464
2.159854
2.388589
3.419955
1.843722
2.524440
2.189729
2.160405
0.817229
2.297625
0.851379
1.879152
4.469905
2.163601
2.488621
5.095784
3.775516
4.219428
4.753126
2.290248
3.478406
4.118500
2.769156
4.806329
1.703981
3.013171
2.337512
2.349062
5.622614
2.306811
2.270668
2.811853
0.314255
2.850512
2.229919
2.379027
1.457563
2.186398
2.608777
3.975184
5.059047
3.024223
2.309879
1.360904
1.709605
2.241360
5.775995
3.105602
2.020388
1.757615
2.333727
0.615342
2.298799
1.772634
1.793612
2.375068
2.399701
1.306046
2.424240
2.223815
4.446079
2.591296
3.949443
3.998073
1.945513
2.288303
2.977191
3.834955
1.857703
2.228729
2.322272
4.183938
3.129621
1.802519
3.145001
4.780612
2.894553
2.410693
2.043287
2.320854
2.305070
3.244725
1.837611
2.474493
2.761556
2.058078
1.864363
2.017442
5.000662
1.945655
3.019494
1.038386
4.474563
2.918621
2.484559
2.107956
0.961940
2.204542
1.713369
3.147558
3.471400
3.901632
3.987555
0.345711
1.248154
2.281562
1.894759
2.333560
0.653840
2.112892
2.463825
3.329875
0.833021
4.534362
3.969700
2.221592
2.165545
1.925501
5.722774
2.537424
3.984019
2.297179
2.150248
4.555449
3.260348
2.436944
2.249157
3.816310
2.601386
1.091605
3.234489
3.520237
1.319366
2.067288
1.924976
2.099265
2.076879
5.986037
1.685328
2.381872
2.516034
0.873862
2.668540
2.249549
2.557926
2.620057
2.395881
4.758209
4.208394
2.407806
2.330625
2.247813
0.712446
1.384817
1.767840
1.806808
1.635042
1.748134
1.692159
1.573801
1.858265
2.219545
2.247517
2.529439
2.366242
1.934862
2.057340
2.343183
1.530038
1.848947
3.570679
2.535979
3.132366
3.610380
3.651212
2.787870
3.697067
3.563726
3.260442
3.564357
2.875057
3.253296
3.448800
2.766885
3.069828
3.188251
2.654195
2.150292
2.049359
3.881918
3.772142
3.457283
3.116564
3.236842
2.623974
2.571889
0.934974
2.342163
2.744342
2.517005
3.316878
2.060633
2.653586
0.285957
1.099540
1.224276
2.022128
1.886194
1.992936
2.406620
1.986514
1.819965
3.759494
1.905326
3.332420
1.067762
2.114844
2.958188
1.310702
0.860873
0.525507
0.735380
2.790389
1.748850
4.493008
5.226862
4.608998
3.770456
2.806298
2.950664
2.745334
2.647242
4.557352
5.115771
4.824505
2.699612
2.064063
1.723324
1.936060
2.365046
1.543965
3.320807
2.342323
0.529812
1.383113
2.220617
2.932885
1.707372
1.986750
2.062694
2.295946
2.091724
2.669864
1.604340
2.050237
1.580934
1.629782
2.206559
2.820402
2.050725
3.009590
1.711224
2.921726
2.851734
3.548277
2.805021
3.438249
2.218662
2.742582
2.316909
2.294505
1.685467
2.359570
1.586922
1.463687
5.773128
1.980631
1.852333
1.776861
0.701173
3.359738
3.573207
3.456462
3.839573
2.606888
3.711562
2.902965
2.539981
1.759862
1.870764
1.991754
2.134647
2.073758
1.715951
2.046652
2.298040
1.881275
2.166460
2.352958
4.545012
2.994163
1.897906
1.385517
2.186740
1.875541
1.822659
2.791102
1.690391
1.082026
3.200888
2.979600
2.040111
2.238949
2.490018
4.578529
1.737402
1.753570
1.723166
1.671374
1.662195
2.314843
3.570158
3.677415
4.776631
0.500685
3.376176
2.136706
2.528572
2.144693
2.117016
2.549695
1.746298
1.812552
1.878217
1.748429
1.863661
1.828955
1.761765
2.022743
3.230745
3.897007
3.724639
2.378246
2.752024
3.635469
3.475601
3.643732
1.924464
3.857085
3.382820
4.284240
4.202460
2.920202
1.080898
2.378196
2.132839
2.197862
1.706605
1.999626
1.659860
1.752836
0.527194
2.172443
2.235521
4.592735
0.352038
2.543596
0.353647
1.238614
0.975506
1.196349
0.482906
2.318526
1.897980
1.891989
1.507322
0.962566
1.259339
3.227572
4.310006
3.372220
1.864460
4.645620
2.633770
1.770787
3.658622
2.690302
2.679826
1.742729
3.343452
3.084384
0.993422
1.822350
1.094162
3.061078
1.881131
0.933022
1.058369
0.908183
3.354337
2.071598
3.090013
2.617724
1.939892
1.790821
1.661958
1.458391
1.753595
1.978442
2.492522
2.094490
2.382253
3.504365
2.485768
2.999804
3.902296
5.824454
5.816467
4.902780
5.861123
4.887355
5.732942
5.917015
5.730055
3.779554
3.835787
3.440728
3.399241
3.786869
3.887367
3.910957
2.308567
2.155298
2.019008
1.867324
1.908438
1.769726
1.747666
1.787311
1.587144
2.406916
2.543500
2.357320
2.300109
5.096733
4.328824
5.227929
4.491815
3.632564
3.060934
4.627165
1.773382
2.588951
3.913430
4.496591
3.370939
4.632834
1.679608
1.888969
1.475776
1.487472
1.783598
1.915532
2.429286
1.891213
2.146665
2.173772
1.954732
2.865467
2.764271
2.496692
3.323591
3.187264
1.838354
2.981539
0.561012
1.753390
2.557295
2.131104
1.061427
0.832146
3.753481
1.524932
2.363331
1.082630
0.969590
1.621404
2.471718
2.274891
1.675276
2.481042
2.636932
1.573934
1.582469
3.162622
1.633860
1.628109
1.161662
1.249723
2.491447
2.743990
1.618861
1.484210
1.911847
1.732256
1.860806
2.396913
1.445645
2.043326
2.242834
1.643750
1.802710
1.659391
0.729754
0.804060
0.114960
1.429600
1.896816
2.681856
3.326027
2.987335
2.870170
1.739274
1.858889
1.632432
1.785817
2.059132
2.244130
0.581014
0.575366
2.860215
2.131954
2.631853
4.997067
2.881672
1.902150
1.705523
1.814967
2.072929
2.045988
3.377366
2.226974
3.172626
3.530664
4.035666
3.646178
1.822648
1.955671
1.842104
1.863579
1.404421
2.210591
0.735463
1.844195
0.797893
1.067634
0.269211
0.656107
1.945925
2.352396
2.096269
1.738960
1.978970
3.556059
1.537108
1.417507
1.901706
1.690871
2.048463
1.904432
2.035317
2.135927
2.097865
2.121124
2.019201
2.075551
2.366414
1.017117
2.004537
1.905084
1.926520
3.868876
1.878834
2.118038
1.887451
2.053431
2.721817
1.992383
1.933771
4.056765
4.260082
3.227490
3.081308
1.676714
1.773436
1.691308
3.239449
1.879865
4.924218
1.971098
1.949346
3.099124
0.330851
0.947109
0.372509
2.155929
1.770790
1.655505
4.944479
1.187027
1.900798
1.889946
1.850505
2.071595
1.040266
1.146493
2.305549
2.173745
1.979704
1.970862
2.027906
0.964132
4.418969
2.132047
2.146191
2.369071
2.180114
3.745069
1.842218
1.748170
1.732713
2.465931
1.822996
1.777063
1.354945
1.345275
2.352481
3.040300
2.254513
2.855903
2.119454
2.498807
3.024733
3.266412
1.809066
1.776366
2.268679
2.186812
2.747318
3.284147
2.920017
4.261250
3.409554
3.642606
3.196224
2.601135
3.279023
3.513634
2.765042
2.197777
1.892684
2.120839
1.435066
1.601269
1.590489
1.918979
1.380615
1.140510
0.850048
2.793451
1.252625
2.985508
2.039450
1.907600
1.673383
1.881396
1.979715
1.315638
1.461145
1.530784
1.664853
0.604623
1.064860
0.943521
1.213857
1.452599
1.828171
3.027727
1.582352
1.578663
1.788045
1.988904
2.301530
1.628980
1.866631
2.134908
1.835508
1.850073
0.934146
3.008988
3.114352
1.968316
1.942869
2.133531
3.997123
5.024204
4.126866
4.022916
2.561729
3.400960
2.414492
1.809882
1.615441
2.167474
4.367058
2.094793
2.191816
2.022548
1.965219
2.002334
3.830086
3.389704
3.884851
3.916895
3.791494
1.930299
2.155234
1.047018
0.516534
1.936099
2.000045
2.176590
2.221499
3.625070
4.290638
4.165626
3.307591
1.907079
1.864678
3.990433
2.052859
2.414373
1.603346
4.008221
2.105460
2.141980
4.946222
1.300164
1.623402
2.610616
3.200988
2.492611
2.020522
1.988363
2.036553
2.049350
2.114564
5.129165
5.012607
1.992764
1.936459
2.649947
1.882816
1.832944
2.997023
3.059826
1.649258
2.338128
1.869172
1.768798
2.252380
2.232663
2.447184
1.584065
1.502871
1.488346
2.892268
2.751985
2.070267
2.379907
2.222058
2.302351
4.048479
2.892436
3.020561
1.991994
2.091108
2.534278
2.793046
2.248010
2.356207
1.253188
1.506808
3.783197
1.953717
2.235188
1.995686
2.169978
1.886980
3.957734
3.830032
1.611137
4.316157
4.184091
1.700556
1.759747
1.760363
1.799659
1.604105
1.612167
1.780404
1.799669
2.170619
2.241787
1.964777
1.979046
2.071648
1.917848
0.421373
1.029522
2.168507
2.433221
2.041912
1.781402
1.743324
4.132172
1.852397
4.086056
4.244330
3.900034
2.833717
2.146747
1.880854
2.091524
1.236113
1.977173
1.281290
0.813768
0.943407
0.398032
2.247025
2.004604
2.099072
1.908458
2.162157
2.086347
1.846841
1.629368
1.947909
0.825604
5.013631
4.886326
3.499168
1.607607
4.921911
3.087801
2.330243
2.619803
4.952946
4.040793
1.847275
1.901087
4.932695
1.935033
1.862648
2.534149
1.305032
1.344507
1.908500
1.773005
4.784066
3.399905
1.902182
1.506384
1.616905
2.077551
0.926069
0.862168
2.433234
2.055560
2.209240
1.840610
1.892231
3.230754
1.451560
1.703748
0.952926
1.157531
0.969849
2.082736
4.181662
2.920841
2.864554
1.708611
1.711695
2.585400
2.648307
2.526039
2.079590
2.934766
2.377753
2.160590
2.192652
2.146960
2.765702
2.476851
2.434702
2.128932
2.545785
2.294917
2.526660
2.225872
2.119323
2.078120
2.307891
2.168966
2.204998
2.891228
3.042515
2.990107
2.940808
2.480538
2.975545
3.132602
2.963171
2.782780
2.886603
2.307678
2.330548
2.381884
2.262230
2.042449
2.274307
2.096102
2.695998
2.690310
2.351689
1.834933
1.916970
1.793414
2.446592
0.598554
0.379360
0.926447
1.267360
1.945967
2.026245
1.971678
1.930724
2.043724
1.808930
2.468102
2.475326
1.881481
1.812069
1.978762
1.909073
1.928202
0.290130
0.553403
0.407299
0.679565
2.835992
2.628533
1.355746
0.717192
1.044087
0.733246
1.638664
2.059650
1.691276
1.939580
1.978657
1.416354
2.151022
1.453736
1.208202
1.219861
1.468179
1.527928
1.768107
1.843421
2.261122
1.805715
1.536179
1.420052
1.743299
1.745427
