# vtk DataFile Version 2.0
Unstructured Grid Example
ASCII
DATASET UNSTRUCTURED_GRID
POINTS 2044 float
1.022119 -0.001925 0.095599 
-0.293770 0.999913 0.014096 
-0.997405 -0.011623 -0.102631 
-0.310479 -0.990517 0.000865 
0.185436 -0.000165 0.995877 
1.009198 -0.125290 0.092712 
0.981733 -0.249947 0.092362 
0.947299 -0.370588 0.095819 
0.888998 -0.483156 0.091071 
0.824234 -0.587472 0.086711 
0.743058 -0.684271 0.084384 
0.652267 -0.768903 0.078885 
0.553183 -0.841057 0.070833 
0.449524 -0.902881 0.062046 
0.340892 -0.952466 0.051632 
0.228629 -0.989025 0.042671 
0.118013 -1.011250 0.033305 
0.005233 -1.021736 0.022553 
-0.102831 -1.023609 0.016336 
-0.208564 -1.009435 0.008500 
-0.405278 -0.959544 -0.004821 
-0.495063 -0.919121 -0.012916 
-0.579983 -0.876999 -0.019071 
-0.654271 -0.823882 -0.024933 
-0.721813 -0.767533 -0.033220 
-0.782630 -0.707371 -0.040175 
-0.832560 -0.641202 -0.048077 
-0.875906 -0.574290 -0.059133 
-0.911164 -0.504254 -0.069222 
-0.940298 -0.432093 -0.072994 
-0.961743 -0.362183 -0.081323 
-0.976587 -0.290768 -0.087634 
-0.987112 -0.219492 -0.094392 
-0.995425 -0.149172 -0.099727 
-1.000879 -0.080913 -0.099114 
-0.998711 0.057158 -0.101370 
-0.993713 0.125690 -0.098760 
-0.988077 0.197417 -0.095324 
-0.978044 0.270084 -0.089112 
-0.959568 0.342888 -0.082919 
-0.931657 0.413897 -0.079982 
-0.902520 0.485988 -0.072798 
-0.865933 0.555961 -0.061803 
-0.821179 0.625869 -0.056291 
-0.768024 0.693856 -0.048613 
-0.708612 0.760564 -0.035280 
-0.640577 0.819750 -0.021952 
-0.565205 0.876866 -0.014858 
-0.482431 0.923852 -0.004527 
-0.390731 0.964380 0.003394 
-0.190670 1.024038 0.022356 
-0.084693 1.034284 0.028619 
0.023686 1.030373 0.036559 
0.135960 1.016910 0.047049 
0.244630 0.991811 0.050308 
0.355016 0.954945 0.057151 
0.463097 0.904788 0.064771 
0.563639 0.841198 0.069037 
0.656802 0.763340 0.071595 
0.747738 0.679726 0.077242 
0.824059 0.583056 0.081035 
0.890150 0.478454 0.085405 
0.946663 0.366524 0.088354 
0.988614 0.249916 0.091814 
1.012221 0.127214 0.091375 
1.013251 0.000310 0.177054 
1.006868 -0.001061 0.258464 
0.992276 -0.000021 0.339493 
0.971531 0.003031 0.420092 
0.941758 0.003987 0.500483 
0.911726 0.002567 0.575577 
0.865820 0.001880 0.643812 
0.817302 0.004050 0.712866 
0.759713 0.001735 0.767730 
0.700126 0.003089 0.825849 
0.629443 0.003333 0.872146 
0.547444 0.004054 0.908027 
0.464796 0.002778 0.944162 
0.375358 0.004226 0.969812 
0.282555 0.002245 0.986216 
0.179747 0.097984 0.993135 
0.159278 0.194900 0.980726 
0.128171 0.289409 0.956748 
0.096616 0.380083 0.922809 
0.057349 0.467668 0.880226 
0.013288 0.550494 0.830471 
-0.033928 0.629462 0.774401 
-0.079936 0.700606 0.710400 
-0.124899 0.766899 0.638901 
-0.166860 0.825115 0.560785 
-0.206464 0.875870 0.479025 
-0.242019 0.919835 0.390852 
-0.270459 0.954363 0.298596 
-0.290634 0.979898 0.204684 
-0.297875 0.992783 0.110010 
0.084936 -0.000813 0.998767 
-0.015564 0.000042 0.990143 
-0.116278 0.000908 0.969443 
-0.220671 -0.002130 0.933679 
-0.323928 -0.001707 0.889646 
-0.425671 -0.003639 0.837458 
-0.523953 -0.000142 0.775110 
-0.616788 -0.002928 0.704968 
-0.698243 -0.006150 0.623483 
-0.774005 -0.007482 0.535619 
-0.838292 -0.008363 0.440172 
-0.896728 -0.009933 0.342384 
-0.938544 -0.011667 0.235583 
-0.973923 -0.013201 0.125722 
-0.995786 -0.010716 0.011288 
0.180316 -0.097812 0.989619 
0.163022 -0.191860 0.975078 
0.139360 -0.286320 0.951059 
0.100897 -0.380966 0.922148 
0.057823 -0.465244 0.880090 
0.009993 -0.549884 0.830340 
-0.042461 -0.629051 0.772348 
-0.091403 -0.702477 0.708544 
-0.137055 -0.765371 0.634407 
-0.181728 -0.822000 0.555873 
-0.223302 -0.870262 0.472981 
-0.258988 -0.912085 0.383089 
-0.285683 -0.945717 0.290805 
-0.305009 -0.970471 0.194065 
-0.313694 -0.985013 0.098481 
0.752426 0.544496 0.478567 
0.429668 0.422984 0.857443 
0.130855 0.943048 0.394276 
0.893537 0.404216 0.358961 
0.936767 0.339712 0.293074 
0.967155 0.263744 0.274565 
0.976581 0.250944 0.204344 
0.347449 0.908348 0.351253 
0.606324 0.381271 0.786813 
0.209708 0.739105 0.687192 
0.620277 0.754429 0.320911 
0.775103 0.350134 0.633883 
0.641456 0.758575 0.235918 
0.829556 0.225468 0.634592 
0.231219 0.572856 0.820623 
0.048352 0.867339 0.546406 
0.768497 0.621550 0.262361 
0.880350 0.264417 0.545908 
0.216184 0.438193 0.896377 
-0.084910 0.931744 0.431338 
0.275731 0.845720 0.530846 
0.423159 0.588885 0.755500 
0.185848 0.993259 0.193799 
0.563993 0.184326 0.880500 
0.842697 0.535754 0.216567 
0.924097 0.228577 0.455260 
0.201097 0.351587 0.926801 
-0.158977 0.958224 0.357509 
0.012212 1.024573 0.142861 
0.449341 0.126283 0.942793 
0.909766 0.434284 0.163556 
0.970077 0.126390 0.394647 
0.524065 0.686378 0.591799 
0.216994 0.286608 0.952199 
-0.184157 0.981093 0.293924 
-0.054298 1.029989 0.112677 
0.397087 0.095732 0.959271 
0.994246 0.143659 0.291417 
0.953584 0.339597 0.151971 
1.002636 0.125815 0.210950 
0.670729 0.514942 0.627273 
0.571559 0.748568 0.450020 
0.406414 0.828959 0.475203 
0.554373 0.537611 0.713277 
0.694947 0.663301 0.376810 
0.785768 0.424277 0.564915 
0.678232 0.607482 0.515117 
0.329880 0.726292 0.662451 
0.475098 0.213195 0.916295 
0.071136 1.006576 0.214103 
0.166518 0.972576 0.301464 
0.507130 0.317819 0.871865 
0.232483 0.798058 0.610869 
0.313076 0.668800 0.727038 
0.319618 0.877858 0.447210 
0.519026 0.498293 0.765585 
0.324474 0.512510 0.834660 
0.090822 0.905213 0.482323 
0.270526 0.953598 0.280871 
0.588691 0.292621 0.833637 
0.321575 0.591794 0.786502 
0.161412 0.858449 0.546676 
0.311687 0.441406 0.874347 
0.016399 0.941817 0.422839 
0.811242 0.536212 0.350587 
0.886922 0.345133 0.460517 
0.520849 0.405502 0.826322 
0.237528 0.933537 0.372620 
0.202591 0.903031 0.461551 
0.427800 0.506827 0.812129 
0.108636 0.591931 0.812115 
-0.049020 0.835724 0.580440 
0.094007 0.807121 0.629003 
0.184521 0.660832 0.762031 
0.126887 0.501036 0.867186 
-0.117795 0.885221 0.498244 
0.708042 0.367073 0.698962 
0.514132 0.830968 0.336389 
0.278279 0.977826 0.120194 
0.641256 0.091460 0.853431 
-0.057827 0.966501 0.368821 
0.286390 0.376355 0.909728 
-0.053908 1.016651 0.211741 
0.377608 0.206182 0.952162 
0.353775 0.771388 0.598787 
0.407342 0.655596 0.705609 
0.384825 0.325626 0.908691 
0.019574 0.985669 0.315622 
0.952262 0.260017 0.358563 
0.898898 0.439640 0.254893 
0.219820 0.514303 0.857315 
-0.016697 0.897240 0.497339 
0.183438 1.003197 0.102653 
0.583305 0.070047 0.892786 
0.099281 1.017325 0.122523 
0.519622 0.100023 0.917492 
0.140054 0.429491 0.900439 
-0.163723 0.917563 0.433086 
-0.174875 1.004726 0.215678 
0.270504 0.209870 0.969720 
0.291863 0.293873 0.942003 
-0.105304 0.992964 0.294576 
0.607159 0.594118 0.614656 
0.545698 0.726623 0.514177 
0.467608 0.768320 0.529698 
0.547698 0.606295 0.657793 
0.735596 0.515676 0.542088 
0.695029 0.633536 0.446441 
0.611028 0.648298 0.551481 
0.373180 0.920462 0.267839 
0.657305 0.277543 0.788475 
0.749763 0.615151 0.342531 
0.837163 0.384047 0.521628 
0.623037 0.689417 0.482254 
0.674470 0.557036 0.576469 
0.792134 0.467568 0.514720 
0.732180 0.468362 0.603869 
0.628145 0.718458 0.412496 
0.376471 0.810959 0.530769 
0.489415 0.600335 0.708911 
0.835187 0.467734 0.441137 
0.758702 0.579449 0.408406 
0.920763 0.304983 0.412958 
0.947187 0.337109 0.222121 
0.436014 0.850515 0.400088 
0.627565 0.447881 0.725146 
0.693193 0.448221 0.666007 
0.542803 0.791718 0.396675 
0.438665 0.745223 0.582734 
0.441383 0.686189 0.646993 
0.101571 0.736341 0.702875 
0.496573 0.789903 0.463739 
0.619118 0.530889 0.669394 
0.044355 0.684223 0.743248 
-0.004477 0.760350 0.670076 
0.548917 0.826170 0.265210 
0.760607 0.270626 0.697055 
1.015126 0.106586 0.147419 
0.659374 0.187345 0.824779 
0.325230 0.951201 0.195661 
0.831229 0.104502 0.674720 
0.610466 0.797424 0.146251 
0.825611 0.328494 0.578197 
0.698054 0.686647 0.299838 
0.702447 0.712656 0.172245 
0.878937 0.120700 0.610130 
0.314976 0.099584 0.979229 
-0.151799 1.022937 0.113677 
0.948794 0.103556 0.465071 
0.850223 0.537830 0.147110 
0.789667 0.620117 0.159193 
0.914266 0.124861 0.529978 
0.843471 0.514996 0.288694 
0.691643 0.319082 0.745156 
0.450517 0.875905 0.300052 
-0.234084 1.012510 0.077658 
0.244500 0.064406 0.990108 
0.235586 0.135892 0.986064 
-0.232399 1.005040 0.144137 
0.509618 0.870729 0.133986 
0.776911 0.093871 0.739509 
0.398454 0.933064 0.128916 
0.712605 0.093380 0.797705 
0.570631 0.822208 0.193254 
0.797504 0.171619 0.696628 
0.452405 0.893649 0.212275 
0.725797 0.203904 0.760435 
0.702539 0.699114 0.243343 
-0.417709 0.380622 0.770479 
-0.597865 0.755869 0.328563 
-0.893592 0.263167 0.294470 
-0.232252 0.276873 0.891787 
-0.132549 0.248377 0.930941 
-0.070641 0.187324 0.961960 
0.007276 0.126189 0.984648 
-0.480951 0.704700 0.516097 
-0.778817 0.226327 0.497058 
-0.820981 0.531162 0.242858 
-0.331039 0.561318 0.723516 
-0.557988 0.212624 0.724001 
-0.217965 0.577953 0.759472 
-0.552687 0.134925 0.741525 
-0.747258 0.680771 0.181799 
-0.913061 0.392818 0.155708 
-0.182693 0.477360 0.828933 
-0.385649 0.169039 0.848469 
-0.671456 0.781500 0.116109 
-0.963872 0.295617 0.067123 
-0.815588 0.385553 0.372920 
-0.679728 0.624735 0.389349 
-0.379992 0.845843 0.426656 
-0.868590 0.098474 0.387722 
-0.095829 0.408665 0.881456 
-0.286348 0.131122 0.900568 
-0.614255 0.836381 0.075886 
-0.980874 0.237170 0.011046 
-0.383416 0.918290 0.286877 
-0.943843 0.064893 0.226844 
-0.190223 0.075462 0.939499 
0.013128 0.341348 0.932052 
-0.643840 0.463943 0.554913 
-0.560579 0.876166 0.074046 
-0.988992 0.187125 0.001279 
-0.369985 0.942578 0.230006 
-0.965361 0.045117 0.159602 
-0.063484 0.099818 0.973031 
0.039297 0.211460 0.967397 
0.023873 0.057215 0.990469 
-0.486196 0.529648 0.648429 
-0.614972 0.324640 0.645748 
-0.580721 0.605816 0.516745 
-0.742760 0.340153 0.505876 
-0.485040 0.265934 0.764730 
-0.354819 0.480149 0.760554 
-0.505519 0.407152 0.702426 
-0.764665 0.514380 0.361074 
-0.438638 0.868730 0.328000 
-0.919185 0.116477 0.279513 
-0.498346 0.800774 0.386245 
-0.877170 0.185189 0.350862 
[...]
POINT_DATA 2044
SCALARS u float 1
LOOKUP_TABLE default
2.157875
6.466533
2.271673
6.829686
4.078174
2.147037
2.362023
2.756965
3.078594
3.428839
3.902357
4.336200
4.748988
5.151354
5.535838
5.909049
6.171768
6.446389
6.627429
6.750633
6.801838
6.739364
6.620928
6.386835
6.097021
5.757501
5.338561
4.898212
4.441922
3.958753
3.470362
3.023191
2.677691
2.435329
2.214972
2.404312
2.669130
3.005098
3.374354
3.771195
4.200942
4.617052
5.008507
5.372566
5.667216
5.909673
6.134076
6.304293
6.441313
6.471849
6.397884
6.294549
6.132877
5.889068
5.649810
5.328569
4.960627
4.576738
4.128480
3.704785
3.289411
2.917193
2.575799
2.357530
2.142129
1.782609
1.506971
1.331997
1.333668
1.465443
1.819476
2.051493
2.427795
2.758106
3.181470
3.482361
3.640402
3.847719
3.971958
4.062506
3.952338
3.502027
2.818151
2.125192
1.264149
0.313527
0.754424
1.764845
2.751222
3.673189
4.544543
5.325026
5.949644
6.393656
6.554867
4.023395
3.952593
3.835777
3.568967
3.247050
2.860244
2.428691
1.987427
1.666807
1.347541
1.193881
1.090500
1.294579
1.559879
1.921448
3.966482
3.587259
3.068071
2.219056
1.279167
0.254023
0.941059
2.012492
3.018089
4.001073
4.916532
5.700256
6.286144
6.710068
6.900785
2.234838
2.279382
4.910307
2.032160
1.980939
1.850478
1.982921
4.608806
2.336721
1.995629
3.653676
1.810600
3.915477
1.794880
0.981004
3.707315
3.187137
1.776700
1.814007
4.927479
3.459480
1.623916
5.741393
3.169465
2.896564
1.557380
2.420106
5.540260
6.190193
3.683134
2.655252
1.465587
2.438274
2.903805
5.954963
6.304228
3.801005
1.609856
2.390415
1.756194
1.968124
3.241790
3.581340
1.894999
3.037569
1.837475
2.412180
2.119723
3.290465
5.959373
5.383114
2.744794
2.773466
1.535710
4.022543
1.907762
1.509416
4.263150
5.198506
2.675241
1.310129
3.524524
1.953757
4.885229
2.522137
1.837545
2.365636
4.811093
4.220678
1.841162
0.439956
3.406556
2.767405
1.096462
1.117859
4.315663
1.994580
4.092195
5.566149
3.153522
5.380941
2.372588
6.184556
3.488261
2.682474
1.790039
2.730200
5.613379
1.713450
2.403541
1.231785
4.255137
5.822548
3.509086
6.016593
3.622915
1.751514
4.951248
6.324770
3.527000
2.969705
5.885030
2.092009
2.895301
3.022361
2.017128
2.024489
2.697011
2.447246
4.953952
2.430911
2.915121
1.826108
2.866280
2.051645
1.988405
1.958458
3.210397
3.236112
1.837192
2.169140
2.547404
1.752741
2.152371
3.984465
2.056332
2.013427
3.638148
2.670652
2.112197
1.843478
3.400997
2.014264
1.217640
2.274574
4.258613
1.993988
1.972348
2.875564
5.352008
2.011827
4.303827
1.688956
3.377575
3.786394
1.838685
3.899725
6.441054
1.449173
3.044493
3.371069
1.502784
2.596486
2.207492
4.515976
6.499061
4.047096
3.825121
6.485894
4.757650
2.378325
5.181416
2.755194
4.387484
2.058166
4.850969
2.386664
3.600478
1.826253
5.466539
2.703661
2.382157
2.720985
3.195695
3.702252
4.017381
2.149442
4.571085
1.772517
2.245666
1.236635
2.260008
5.623995
3.909557
1.064033
2.665508
6.156418
3.406525
3.270807
4.573618
5.069991
1.550050
1.604348
3.058258
6.322742
3.119288
6.006689
1.623760
3.548144
2.313985
2.952905
6.427429
2.838838
6.287561
1.691233
3.741136
3.244866
3.969331
2.494967
2.280303
3.683248
2.654270
2.197046
1.593119
2.083312
4.114658
5.709575
1.863823
5.252848
2.116624
4.687054
3.952963
4.298324
2.708362
5.567710
3.362060
4.541717
1.877914
3.664441
5.174506
3.138165
5.912832
1.696196
2.293914
2.410126
4.837812
3.008183
5.060409
4.279612
5.681683
4.397497
5.234346
5.991536
3.854437
1.981423
2.631741
4.333742
1.298278
6.185517
2.965927
6.282616
2.090623
3.559129
4.197276
2.512348
5.969630
3.083962
3.706950
5.896308
5.008337
1.226375
5.543285
1.349174
3.530108
6.170050
6.515320
2.422760
2.663987
6.364172
2.760734
2.531248
2.847817
3.296823
1.863657
2.023322
2.437209
3.701788
1.777604
2.267739
1.386557
2.227853
2.265850
1.627570
2.006081
2.178803
2.215300
3.913926
3.066086
1.830490
2.001881
2.824572
3.411897
2.255099
2.569074
2.250252
3.241100
3.633179
4.928366
2.464081
3.056311
4.833915
5.237199
1.908538
2.193434
1.584278
3.999154
1.347373
2.308320
1.272500
2.485904
2.583209
0.569647
6.537580
1.950518
3.312728
1.590612
0.912783
3.002125
1.853992
3.077701
2.140602
6.551784
2.310357
6.553501
2.685982
2.319201
1.798585
3.353357
1.573860
2.688451
1.823051
2.065201
1.748051
2.936014
3.858620
4.002162
1.869879
2.345387
5.589440
2.481924
2.983872
3.346959
1.885341
4.237950
4.530456
2.126077
1.901286
2.198750
1.582340
3.640404
5.603394
2.564736
1.318902
3.065514
6.331818
4.624301
3.070983
1.231431
5.340062
2.973846
1.780291
2.784315
6.583937
1.341089
6.309795
2.467092
3.443371
2.938760
2.534674
6.709384
1.464124
6.577416
3.006501
3.570001
2.201481
2.525099
2.432502
3.770124
1.573957
2.177016
2.013290
3.961054
1.474598
5.972573
1.771245
5.450614
3.819615
4.682807
2.391218
4.421710
3.083539
5.623077
1.575088
4.751166
5.183243
3.439374
6.045183
2.812464
2.610332
1.751224
4.965272
2.069815
5.113738
2.709330
5.693289
4.065109
5.206117
4.204178
3.552879
6.141511
2.794789
1.892610
1.059730
4.652540
2.618597
6.347252
1.763659
6.510250
3.978530
3.388390
6.174431
2.131767
2.629570
3.206488
5.957946
3.396702
1.054027
5.357668
1.124853
5.892970
6.378807
3.176482
2.139432
6.810382
6.569403
2.321205
2.460264
2.767813
3.348420
2.683638
1.984710
1.826451
2.368874
1.511719
3.937659
1.455272
2.306165
2.212833
2.106815
2.041110
2.108263
2.017105
2.868488
3.935762
2.046860
1.685470
2.064646
3.551844
2.133552
2.669366
2.885019
3.478877
3.340044
4.832306
3.136447
2.340145
5.221373
4.702237
2.386532
1.846426
4.291338
1.307546
2.176836
1.330464
2.318737
1.339033
0.940284
2.513470
1.783290
6.878602
1.686996
3.242384
2.990422
0.898609
3.281379
1.732066
6.891038
2.039827
6.873726
2.097822
1.929755
1.784539
2.512539
3.625014
1.361357
0.551072
1.943907
2.015876
3.186366
1.575984
3.864242
3.566256
3.955114
3.714655
2.448299
5.339465
2.140980
2.163417
1.959545
1.908815
1.835130
1.902589
4.941851
2.195483
2.232763
3.963718
1.978794
4.116104
1.997473
4.086258
0.960459
3.460372
1.610141
5.323682
1.915128
1.557483
3.826613
6.075667
3.232560
1.540717
2.986384
5.944343
2.589744
6.509945
3.671741
2.833608
1.369807
2.506735
6.329460
3.101564
6.666810
3.802463
2.323635
1.500884
3.412524
1.917669
3.877178
1.776366
1.952768
3.292564
2.461372
2.423911
6.282817
3.351611
5.703072
2.750221
3.108760
1.602418
4.429767
1.768165
4.703779
1.536084
5.498105
2.721824
1.293693
3.904565
1.987013
5.299230
2.834664
1.943666
2.195452
5.174052
1.672218
4.669023
0.390720
3.747645
1.194569
3.104771
4.675872
1.086610
2.043436
4.338129
5.850503
3.231959
5.786715
2.463071
6.523308
3.496944
1.943699
3.134464
2.803120
5.987583
1.674639
2.410030
1.263358
4.655532
6.136035
3.463682
6.351049
3.609809
1.847080
5.351464
6.613919
3.564361
3.069965
6.276112
3.019027
2.106317
1.957964
3.202852
2.893390
2.142388
2.499840
5.218152
2.566552
1.890074
3.082783
2.116108
2.933712
2.825570
3.421637
1.905354
3.480593
1.768819
2.416227
2.061084
4.324918
1.901160
3.917003
1.860106
2.611674
2.127199
2.674137
2.139633
1.881759
3.624098
1.516540
2.582451
2.157620
4.491056
2.884249
5.632170
4.527841
2.080476
3.589928
1.758100
1.757223
4.063723
6.808754
3.953035
1.431584
3.219986
3.555754
1.668399
2.248710
4.771138
4.008076
6.878555
3.894659
6.830130
1.724894
4.996692
2.539812
5.447719
2.895478
1.945061
4.616754
2.163996
2.510184
5.102896
2.215454
1.538787
2.486267
1.232718
2.336423
2.283072
1.142475
1.835849
1.976589
1.966593
2.040118
3.318607
2.518277
2.108403
1.457158
2.242490
2.246439
2.946998
2.050833
2.200664
3.771990
2.421718
3.539118
1.418406
3.853678
2.263959
2.286170
4.490200
3.861627
3.402065
1.554068
0.832891
2.352442
2.858163
2.786772
4.215815
3.285199
3.508470
1.188037
1.782875
2.258073
1.245632
0.988936
2.066623
2.344531
1.995625
4.263452
2.202193
4.804754
2.623268
2.433777
2.169492
2.148562
2.624657
4.773635
5.245229
5.010411
3.293753
1.222400
2.419385
2.695544
2.267606
2.449248
2.289132
2.044781
2.264881
3.780100
2.005795
2.338969
2.452886
2.104815
2.317894
2.559815
5.069017
3.321693
4.700278
2.939978
2.759099
2.194240
1.949396
4.358353
1.644330
1.958205
2.417734
1.003620
2.153839
2.282930
2.087892
2.669287
0.325680
1.059185
2.878082
2.453928
1.608744
4.444914
5.154701
3.591285
4.350068
2.911288
2.092937
2.231091
1.716159
0.206909
2.347751
1.427487
2.358328
2.207960
1.940359
2.278205
5.314011
1.959086
5.251343
5.750118
2.626462
2.946229
2.167748
4.166219
5.188972
2.518300
2.216807
3.232060
0.682736
1.994231
1.521836
1.719994
2.247148
2.528551
3.639547
2.103879
3.216307
2.282507
2.613115
2.107658
2.037914
5.669063
5.455779
2.664087
2.880989
1.447324
0.672369
3.594262
3.661737
2.361608
5.227645
3.270183
4.568508
4.322634
2.719692
2.437188
3.260569
1.397026
1.505748
2.323674
2.224933
2.062649
2.186778
2.228979
1.826237
2.403451
1.643921
2.271150
2.218398
2.040753
4.084429
3.983323
1.088023
3.571397
4.982265
1.229711
3.912258
2.380367
1.979235
1.666911
2.256737
1.688157
2.446180
2.343721
2.064332
1.952685
0.655614
2.200988
3.289347
2.503957
2.203732
2.786731
2.239607
2.205120
5.999028
5.882398
2.441025
2.251444
2.683194
4.270966
2.665379
5.117921
2.415382
4.641172
2.363052
3.437292
2.880498
2.348146
2.322538
4.530168
3.946959
5.491518
1.091711
2.334095
2.425972
1.323382
2.248149
5.311445
2.230138
5.777736
3.001041
2.684090
4.652468
4.422967
2.955463
3.993946
5.612605
5.000704
2.242446
2.330772
2.343284
3.750660
3.031240
2.078204
4.979629
5.033566
2.314651
1.640394
2.423071
2.246677
3.688335
2.232383
2.421257
2.138841
2.062275
2.367199
6.139218
5.895847
1.785898
3.692568
2.396088
4.287042
2.616977
1.964361
5.737045
1.803615
2.186045
5.910961
5.421216
3.754445
2.316322
1.808719
1.390366
2.431150
4.494974
1.638573
3.495918
1.468734
3.169464
2.159854
2.388589
3.419955
1.843722
2.524440
2.189729
2.160405
0.817229
2.297625
0.851379
1.879152
4.469905
2.163601
2.488621
5.095784
3.775516
4.219428
4.753126
2.290248
3.478406
4.118500
2.769156
4.806329
1.703981
3.013171
2.337512
2.349062
5.622614
2.306811
2.270668
2.811853
0.314255
2.850512
2.229919
2.379027
1.457563
2.186398
2.608777
3.975184
5.059047
3.024223
2.309879
1.360904
1.709605
2.241360
5.775995
3.105602
2.020388
1.757615
2.333727
0.615342
2.298799
1.772634
1.793612
2.375068
2.399701
1.306046
2.424240
2.223815
4.446079
2.591296
3.949443
3.998073
1.945513
2.288303
2.977191
3.834955
1.857703
2.228729
2.322272
4.183938
3.129621
1.802519
3.145001
4.780612
2.894553
2.410693
2.043287
2.320854
2.305070
3.244725
1.837611
2.474493
2.761556
2.058078
1.864363
2.017442
5.000662
1.945655
3.019494
1.038386
4.474563
2.918621
2.484559
2.107956
0.961940
2.204542
1.713369
3.147558
3.471400
3.901632
3.987555
0.345711
1.248154
2.281562
1.894759
2.333560
0.653840
2.112892
2.463825
3.329875
0.833021
4.534362
3.969700
2.221592
2.165545
1.925501
5.722774
2.537424
3.984019
2.297179
2.150248
4.555449
3.260348
2.436944
2.249157
3.816310
2.601386
1.091605
3.234489
3.520237
1.319366
2.067288
1.924976
2.099265
2.076879
5.986037
1.685328
2.381872
2.516034
0.873862
2.668540
2.249549
2.557926
2.620057
2.395881
4.758209
4.208394
2.407806
2.330625
2.247813
0.712446
1.384817
1.767840
1.806808
1.635042
1.748134
1.692159
1.573801
1.858265
2.219545
2.247517
2.529439
2.366242
1.934862
2.057340
2.343183
1.530038
1.848947
3.570679
2.535979
3.132366
3.610380
3.651212
2.787870
3.697067
3.563726
3.260442
3.564357
2.875057
3.253296
3.448800
2.766885
3.069828
3.188251
2.654195
2.150292
2.049359
3.881918
3.772142
3.457283
3.116564
3.236842
2.623974
2.571889
0.934974
2.342163
2.744342
2.517005
3.316878
2.060633
2.653586
0.285957
1.099540
1.224276
2.022128
1.886194
1.992936
2.406620
1.986514
1.819965
3.759494
1.905326
3.332420
1.067762
2.114844
2.958188
1.310702
0.860873
0.525507
0.735380
2.790389
1.748850
4.493008
5.226862
4.608998
3.770456
2.806298
2.950664
2.745334
2.647242
4.557352
5.115771
4.824505
2.699612
2.064063
1.723324
1.936060
2.365046
1.543965
3.320807
2.342323
0.529812
1.383113
2.220617
2.932885
1.707372
1.986750
2.062694
2.295946
2.091724
2.669864
1.604340
2.050237
1.580934
1.629782
2.206559
2.820402
2.050725
3.009590
1.711224
2.921726
2.851734
3.548277
2.805021
3.438249
2.218662
2.742582
2.316909
2.294505
1.685467
2.359570
1.586922
1.463687
5.773128
1.980631
1.852333
1.776861
0.701173
3.359738
3.573207
3.456462
3.839573
2.606888
3.711562
2.902965
2.539981
1.759862
1.870764
1.991754
2.134647
2.073758
1.715951
2.046652
2.298040
1.881275
2.166460
2.352958
4.545012
2.994163
1.897906
1.385517
2.186740
1.875541
1.822659
2.791102
1.690391
1.082026
3.200888
2.979600
2.040111
2.238949
2.490018
4.578529
1.737402
1.753570
1.723166
1.671374
1.662195
2.314843
3.570158
3.677415
4.776631
0.500685
3.376176
2.136706
2.528572
2.144693
2.117016
2.549695
1.746298
1.812552
1.878217
1.748429
1.863661
1.828955
1.761765
2.022743
3.230745
3.897007
3.724639
2.378246
2.752024
3.635469
3.475601
3.643732
1.924464
3.857085
3.382820
4.284240
4.202460
2.920202
1.080898
2.378196
2.132839
2.197862
1.706605
1.999626
1.659860
1.752836
0.527194
2.172443
2.235521
4.592735
0.352038
2.543596
0.353647
1.238614
0.975506
1.196349
0.482906
2.318526
1.897980
1.891989
1.507322
0.962566
1.259339
3.227572
4.310006
3.372220
1.864460
4.645620
2.633770
1.770787
3.658622
2.690302
2.679826
1.742729
3.343452
3.084384
0.993422
1.822350
1.094162
3.061078
1.881131
0.933022
1.058369
0.908183
3.354337
2.071598
3.090013
2.617724
1.939892
1.790821
1.661958
1.458391
1.753595
1.978442
2.492522
2.094490
2.382253
3.504365
2.485768
2.999804
3.902296
5.824454
5.816467
4.902780
5.861123
4.887355
5.732942
5.917015
5.730055
3.779554
3.835787
3.440728
3.399241
3.786869
3.887367
3.910957
2.308567
2.155298
2.019008
1.867324
1.908438
1.769726
1.747666
1.787311
1.587144
2.406916
2.543500
2.357320
2.300109
5.096733
4.328824
5.227929
4.491815
3.632564
3.060934
4.627165
1.773382
2.588951
3.913430
4.496591
3.370939
4.632834
1.679608
1.888969
1.475776
1.487472
1.783598
1.915532
2.429286
1.891213
2.146665
2.173772
1.954732
2.865467
2.764271
2.496692
3.323591
3.187264
1.838354
2.981539
0.561012
1.753390
2.557295
2.131104
1.061427
0.832146
3.753481
1.524932
2.363331
1.082630
0.969590
1.621404
2.471718
2.274891
1.675276
2.481042
2.636932
1.573934
1.582469
3.162622
1.633860
1.628109
1.161662
1.249723
2.491447
2.743990
1.618861
1.484210
1.911847
1.732256
1.860806
2.396913
1.445645
2.043326
2.242834
1.643750
1.802710
1.659391
0.729754
0.804060
0.114960
1.429600
1.896816
2.681856
3.326027
2.987335
2.870170
1.739274
1.858889
1.632432
1.785817
2.059132
2.244130
0.581014
0.575366
2.860215
2.131954
2.631853
4.997067
2.881672
1.902150
1.705523
1.814967
2.072929
2.045988
3.377366
2.226974
3.172626
3.530664
4.035666
3.646178
1.822648
1.955671
1.842104
1.863579
1.404421
2.210591
0.735463
1.844195
0.797893
1.067634
0.269211
0.656107
1.945925
2.352396
2.096269
1.738960
1.978970
3.556059
1.537108
1.417507
1.901706
1.690871
2.048463
1.904432
2.035317
2.135927
2.097865
2.121124
2.019201
2.075551
2.366414
1.017117
2.004537
1.905084
1.926520
3.868876
1.878834
2.118038
1.887451
2.053431
2.721817
1.992383
1.933771
4.056765
4.260082
3.227490
3.081308
1.676714
1.773436
1.691308
3.239449
1.879865
4.924218
1.971098
1.949346
3.099124
0.330851
0.947109
0.372509
2.155929
1.770790
1.655505
4.944479
1.187027
1.900798
1.889946
1.850505
2.071595
1.040266
1.146493
2.305549
2.173745
1.979704
1.970862
2.027906
0.964132
4.418969
2.132047
2.146191
2.369071
2.180114
3.745069
1.842218
1.748170
1.732713
2.465931
1.822996
1.777063
1.354945
1.345275
2.352481
3.040300
2.254513
2.855903
2.119454
2.498807
3.024733
3.266412
1.809066
1.776366
2.268679
2.186812
2.747318
3.284147
2.920017
4.261250
3.409554
3.642606
3.196224
2.601135
3.279023
3.513634
2.765042
2.197777
1.892684
2.120839
1.435066
1.601269
1.590489
1.918979
1.380615
1.140510
0.850048
2.793451
1.252625
2.985508
2.039450
1.907600
1.673383
1.881396
1.979715
1.315638
1.461145
1.530784
1.664853
0.604623
1.064860
0.943521
1.213857
1.452599
1.828171
3.027727
1.582352
1.578663
1.788045
1.988904
2.301530
1.628980
1.866631
2.134908
1.835508
1.850073
0.934146
3.008988
3.114352
1.968316
1.942869
2.133531
3.997123
5.024204
4.126866
4.022916
2.561729
3.400960
2.414492
1.809882
1.615441
2.167474
4.367058
2.094793
2.191816
2.022548
1.965219
2.002334
3.830086
3.389704
3.884851
3.916895
3.791494
1.930299
2.155234
1.047018
0.516534
1.936099
2.000045
2.176590
2.221499
3.625070
4.290638
4.165626
3.307591
1.907079
1.864678
3.990433
2.052859
2.414373
1.603346
4.008221
2.105460
2.141980
4.946222
1.300164
1.623402
2.610616
3.200988
2.492611
2.020522
1.988363
2.036553
2.049350
2.114564
5.129165
5.012607
1.992764
1.936459
2.649947
1.882816
1.832944
2.997023
3.059826
1.649258
2.338128
1.869172
1.768798
2.252380
2.232663
2.447184
1.584065
1.502871
1.488346
2.892268
2.751985
2.070267
2.379907
2.222058
2.302351
4.048479
2.892436
3.020561
1.991994
2.091108
2.534278
2.793046
2.248010
2.356207
1.253188
1.506808
3.783197
1.953717
2.235188
1.995686
2.169978
1.886980
3.957734
3.830032
1.611137
4.316157
4.184091
1.700556
1.759747
1.760363
1.799659
1.604105
1.612167
1.780404
1.799669
2.170619
2.241787
1.964777
1.979046
2.071648
1.917848
0.421373
1.029522
2.168507
2.433221
2.041912
1.781402
1.743324
4.132172
1.852397
4.086056
4.244330
3.900034
2.833717
2.146747
1.880854
2.091524
1.236113
1.977173
1.281290
0.813768
0.943407
0.398032
2.247025
2.004604
2.099072
1.908458
2.162157
2.086347
1.846841
1.629368
1.947909
0.825604
5.013631
4.886326
3.499168
1.607607
4.921911
3.087801
2.330243
2.619803
4.952946
4.040793
1.847275
1.901087
4.932695
1.935033
1.862648
2.534149
1.305032
1.344507
1.908500
1.773005
4.784066
3.399905
1.902182
1.506384
1.616905
2.077551
0.926069
0.862168
2.433234
2.055560
2.209240
1.840610
1.892231
3.230754
1.451560
1.703748
0.952926
1.157531
0.969849
2.082736
4.181662
2.920841
2.864554
1.708611
1.711695
2.585400
2.648307
2.526039
2.079590
2.934766
2.377753
2.160590
2.192652
2.146960
2.765702
2.476851
2.434702
2.128932
2.545785
2.294917
2.526660
2.225872
2.119323
2.078120
2.307891
2.168966
2.204998
2.891228
3.042515
2.990107
2.940808
2.480538
2.975545
3.132602
2.963171
2.782780
2.886603
2.307678
2.330548
2.381884
2.262230
2.042449
2.274307
2.096102
2.695998
2.690310
2.351689
1.834933
1.916970
1.793414
2.446592
0.598554
0.379360
0.926447
1.267360
1.945967
2.026245
1.971678
1.930724
2.043724
1.808930
2.468102
2.475326
1.881481
1.812069
1.978762
1.909073
1.928202
0.290130
0.553403
0.407299
0.679565
2.835992
2.628533
1.355746
0.717192
1.044087
0.733246
1.638664
2.059650
1.691276
1.939580
1.978657
1.416354
2.151022
1.453736
1.208202
1.219861
1.468179
1.527928
1.768107
1.843421
2.261122
1.805715
1.536179
1.420052
1.743299
1.745427
