# vtk DataFile Version 2.0
Unstructured Grid Example
ASCII
DATASET UNSTRUCTURED_GRID
POINTS 2044 float
0.977021 0.002000 -0.099316 
0.305193 1.000090 -0.014644 
-1.002696 0.012075 0.106621 
0.322551 -1.009852 -0.000899 
-0.192646 0.000172 1.004283 
0.980627 -0.069683 -0.096317 
0.979801 -0.138101 -0.095954 
0.966956 -0.206859 -0.099545 
0.960117 -0.278304 -0.094612 
0.941852 -0.350809 -0.090083 
0.923319 -0.421865 -0.087665 
0.898448 -0.494653 -0.081952 
0.867015 -0.567948 -0.073587 
0.826451 -0.638090 -0.064458 
0.778595 -0.705769 -0.053640 
0.723604 -0.770653 -0.044330 
0.657645 -0.833112 -0.034600 
0.586420 -0.889626 -0.023430 
0.504595 -0.936296 -0.016971 
0.416519 -0.980381 -0.008831 
0.221191 -1.032211 0.005008 
0.116546 -1.044848 0.013418 
0.010678 -1.039990 0.019813 
-0.100536 -1.027765 0.025902 
-0.211244 -1.000757 0.034512 
-0.319681 -0.960394 0.041738 
-0.428522 -0.909944 0.049946 
-0.531744 -0.845088 0.061432 
-0.629485 -0.769593 0.071914 
-0.718410 -0.683848 0.075832 
-0.798996 -0.584857 0.084486 
-0.869123 -0.478172 0.091041 
-0.925596 -0.363830 0.098062 
-0.965576 -0.242794 0.103605 
-0.989269 -0.115786 0.102968 
-0.991521 0.140465 0.105312 
-0.967355 0.267190 0.102600 
-0.924593 0.386763 0.099030 
-0.867609 0.499661 0.092577 
-0.801256 0.604903 0.086143 
-0.727386 0.702752 0.083092 
-0.638465 0.788568 0.075628 
-0.542105 0.864130 0.064206 
-0.440344 0.925873 0.058480 
-0.334856 0.974434 0.050503 
-0.224958 1.007997 0.036652 
-0.114762 1.032058 0.022805 
-0.004675 1.040128 0.015436 
0.103422 1.039932 0.004703 
0.206078 1.027187 -0.003526 
0.397930 0.965210 -0.023225 
0.485752 0.925206 -0.029732 
0.567249 0.880652 -0.037981 
0.639000 0.827232 -0.048878 
0.706981 0.767759 -0.052264 
0.763923 0.703193 -0.059373 
0.812350 0.636109 -0.067290 
0.856153 0.567802 -0.071722 
0.893737 0.500433 -0.074379 
0.918457 0.426587 -0.080246 
0.942033 0.355396 -0.084186 
0.958921 0.283189 -0.088725 
0.967618 0.211081 -0.091789 
0.972653 0.138132 -0.095384 
0.977486 0.067685 -0.094928 
0.976416 -0.000322 0.015907 
0.953688 0.001102 0.129253 
0.920230 0.000022 0.239163 
0.874375 -0.003149 0.343820 
0.819758 -0.004142 0.441180 
0.748092 -0.002667 0.534785 
0.676592 -0.001953 0.624609 
0.592627 -0.004207 0.701124 
0.504201 -0.001802 0.778497 
0.405393 -0.003209 0.837309 
0.307205 -0.003462 0.892076 
0.211516 -0.004212 0.940348 
0.108988 -0.002886 0.970216 
0.007813 -0.004390 0.992185 
-0.093696 -0.002332 1.004502 
-0.186736 0.098052 0.997315 
-0.165471 0.195288 0.980847 
-0.133154 0.291194 0.957140 
-0.100373 0.385385 0.924992 
-0.059579 0.475270 0.883682 
-0.013805 0.560844 0.832507 
0.035247 0.639516 0.771566 
0.083045 0.713860 0.703686 
0.129756 0.779359 0.629710 
0.173348 0.838071 0.550153 
0.214491 0.888208 0.463471 
0.251429 0.928081 0.374197 
0.280976 0.959618 0.281650 
0.301935 0.981707 0.185124 
0.309457 0.997680 0.085557 
-0.288084 0.000845 0.991463 
-0.381597 -0.000044 0.971064 
-0.471057 -0.000943 0.943952 
-0.550995 0.002212 0.913699 
-0.624600 0.001774 0.873896 
-0.690521 0.003781 0.825249 
-0.749128 0.000148 0.770829 
-0.800937 0.003042 0.709329 
-0.850685 0.006389 0.645728 
-0.891169 0.007773 0.576297 
-0.927247 0.008688 0.503836 
-0.952087 0.010319 0.424550 
-0.976052 0.012121 0.347113 
-0.987915 0.013714 0.267156 
-0.994560 0.011133 0.188118 
-0.187327 -0.098231 1.000967 
-0.169361 -0.198446 0.986715 
-0.144779 -0.294403 0.963051 
-0.104820 -0.384468 0.925678 
-0.060072 -0.477788 0.883824 
-0.010382 -0.561478 0.832644 
0.044112 -0.639943 0.773698 
0.094957 -0.711917 0.705614 
0.142384 -0.780947 0.634379 
0.188794 -0.841308 0.555256 
0.231984 -0.894034 0.469750 
0.269058 -0.936133 0.382262 
0.296791 -0.968600 0.289744 
0.316868 -0.991501 0.196156 
0.325891 -1.005752 0.097535 
0.785434 0.344072 0.437470 
0.243845 0.322999 0.869711 
0.554277 0.780778 0.352823 
0.891180 0.237882 0.270422 
0.929882 0.193257 0.182405 
0.941818 0.146760 0.151607 
0.966278 0.139223 0.058659 
0.697714 0.671575 0.288733 
0.428773 0.257548 0.797835 
0.348033 0.617221 0.671152 
0.829945 0.497700 0.250749 
0.669099 0.220390 0.622933 
0.871177 0.494766 0.138624 
0.688641 0.140157 0.610760 
0.186851 0.493495 0.817665 
0.376829 0.769133 0.520974 
0.908451 0.382834 0.158550 
0.775545 0.149567 0.491411 
0.053251 0.396545 0.900251 
0.366052 0.863509 0.403666 
0.535777 0.659766 0.504166 
0.382615 0.443871 0.753494 
0.670482 0.788131 0.113108 
0.277634 0.122949 0.905275 
0.938727 0.318551 0.091073 
0.855276 0.125201 0.381546 
-0.022306 0.336830 0.942233 
0.351769 0.909588 0.330678 
0.563683 0.877832 0.080790 
0.109558 0.098014 0.962791 
0.961138 0.249653 0.008961 
0.891991 0.060786 0.304818 
0.607026 0.476716 0.574973 
-0.051778 0.272463 0.960583 
0.364971 0.930565 0.264862 
0.514937 0.908964 0.057148 
0.046002 0.074752 0.982432 
0.937280 0.074935 0.171760 
0.969069 0.190311 -0.011155 
0.967934 0.066846 0.063166 
0.631495 0.336705 0.626165 
0.734522 0.500154 0.404151 
0.647365 0.603477 0.437870 
0.493653 0.373036 0.723657 
0.833439 0.427524 0.309194 
0.730080 0.265383 0.538744 
0.731871 0.392026 0.487983 
0.441855 0.564982 0.653577 
0.175957 0.156505 0.936436 
0.595627 0.842644 0.155562 
0.624130 0.781961 0.242791 
0.270274 0.225800 0.886587 
0.440872 0.648313 0.593654 
0.357146 0.533472 0.722095 
0.622635 0.663759 0.408693 
0.415474 0.355623 0.780397 
0.219725 0.420521 0.847199 
0.462462 0.773902 0.451882 
0.691465 0.729994 0.208768 
0.360929 0.196562 0.854619 
0.287730 0.475163 0.789891 
0.454121 0.715147 0.522035 
0.145799 0.371230 0.893862 
0.452568 0.823769 0.390519 
0.880936 0.327844 0.270422 
0.834142 0.195722 0.397855 
0.336207 0.287839 0.839941 
0.630544 0.728558 0.322000 
0.548515 0.723379 0.426222 
0.314550 0.379186 0.817816 
0.099338 0.552279 0.814499 
0.263124 0.789972 0.564217 
0.329157 0.706939 0.606094 
0.235123 0.573028 0.753781 
0.026364 0.475986 0.870818 
0.280559 0.852082 0.478886 
0.578147 0.235580 0.705848 
0.779595 0.568707 0.267466 
0.728816 0.744322 0.025792 
0.351725 0.055642 0.873554 
0.430145 0.867779 0.335331 
0.072545 0.327505 0.926759 
0.504596 0.895241 0.164420 
0.056302 0.170196 0.962237 
0.518381 0.585708 0.581337 
0.435795 0.492340 0.696036 
0.140303 0.262861 0.927864 
0.519756 0.847893 0.273254 
0.903661 0.143511 0.262072 
0.934429 0.254984 0.135238 
0.122931 0.453807 0.857858 
0.368645 0.816380 0.471430 
0.675099 0.800077 0.010236 
0.259684 0.044109 0.914781 
0.622844 0.840501 0.045713 
0.186159 0.069088 0.944216 
-0.021487 0.414711 0.908597 
0.294101 0.890807 0.410976 
0.407148 0.941968 0.179617 
-0.055549 0.185650 0.978335 
0.018805 0.260097 0.953641 
0.431415 0.900699 0.259367 
0.616558 0.400360 0.612746 
0.680410 0.496426 0.483408 
0.633643 0.544644 0.498847 
0.550439 0.419271 0.659468 
0.730517 0.329236 0.520674 
0.788079 0.406449 0.398249 
0.674924 0.431415 0.531997 
0.750056 0.669544 0.190108 
0.454884 0.180022 0.806665 
0.870887 0.387271 0.262065 
0.781035 0.231092 0.475479 
0.732103 0.449950 0.444741 
0.678670 0.367051 0.567290 
0.769105 0.288642 0.476589 
0.675199 0.296471 0.590118 
0.783279 0.471073 0.354509 
0.589191 0.601097 0.503158 
0.471855 0.430886 0.707114 
0.827937 0.276684 0.378623 
0.833791 0.364630 0.345030 
0.870288 0.173275 0.332195 
0.955956 0.191066 0.086358 
0.709372 0.607525 0.347637 
0.510374 0.297985 0.737769 
0.600291 0.286274 0.667545 
0.756528 0.536945 0.339825 
0.576732 0.540706 0.561702 
0.518063 0.506166 0.638282 
0.251112 0.654657 0.689129 
0.695253 0.548719 0.421068 
0.567943 0.351307 0.673914 
0.149900 0.644383 0.738495 
0.202137 0.718942 0.660849 
0.824970 0.557578 0.177999 
0.604511 0.171613 0.692487 
0.973204 0.057531 -0.023719 
0.402145 0.118593 0.839330 
0.749281 0.707992 0.109959 
0.650354 0.063855 0.653818 
0.877975 0.527883 0.023499 
0.737187 0.203057 0.546949 
0.871660 0.441084 0.212322 
0.906202 0.455116 0.047982 
0.722069 0.068439 0.568500 
-0.045944 0.082072 0.993542 
0.438981 0.948135 0.067430 
0.848471 0.050402 0.393176 
0.950109 0.320626 -0.003058 
0.933189 0.379130 0.021177 
0.802198 0.063663 0.474158 
0.914793 0.308278 0.187926 
0.520691 0.206744 0.752849 
0.771289 0.616887 0.226660 
0.366688 0.979490 0.043141 
-0.130505 0.056909 1.002763 
-0.118753 0.121503 0.993557 
0.367428 0.973843 0.112938 
0.837347 0.600487 0.014793 
0.559738 0.055542 0.736834 
0.786531 0.671423 0.020278 
0.460132 0.056948 0.812092 
0.855337 0.552153 0.085798 
0.618506 0.106580 0.684129 
0.802926 0.627882 0.118160 
0.518639 0.126254 0.766623 
0.892391 0.444507 0.140357 
-0.475139 0.539893 0.766657 
-0.141318 0.975235 0.348881 
-0.832157 0.489030 0.384300 
-0.433971 0.366456 0.882746 
-0.377127 0.309790 0.922191 
-0.364151 0.225442 0.947213 
-0.335418 0.141571 0.970858 
-0.153992 0.883141 0.522508 
-0.806142 0.418516 0.542287 
-0.532161 0.833249 0.313594 
-0.240227 0.698319 0.722692 
-0.701778 0.363246 0.722189 
-0.148268 0.668985 0.761879 
-0.731381 0.244244 0.747794 
-0.312313 0.962956 0.238192 
-0.721633 0.680534 0.265298 
-0.232227 0.562694 0.829478 
-0.611329 0.268496 0.831935 
-0.154212 1.019595 0.157217 
-0.830132 0.544665 0.208108 
-0.691069 0.655109 0.434808 
-0.349496 0.889343 0.417740 
0.080325 0.941279 0.420311 
-0.917647 0.212139 0.460760 
-0.230348 0.472085 0.885449 
-0.562632 0.192788 0.883481 
-0.063949 1.036168 0.107774 
-0.886057 0.455697 0.175135 
0.169118 0.988247 0.278339 
-0.961700 0.161790 0.340706 
-0.517172 0.109060 0.924228 
-0.199980 0.366328 0.929746 
-0.520908 0.707801 0.574978 
0.012161 1.039572 0.096729 
-0.922359 0.375814 0.172325 
0.210165 0.999774 0.219579 
-0.976104 0.127335 0.292721 
-0.409612 0.118791 0.959256 
-0.260512 0.236958 0.969896 
-0.344039 0.063198 0.981016 
-0.366569 0.727585 0.654663 
-0.638944 0.534407 0.657447 
-0.328249 0.835296 0.532743 
-0.693028 0.578172 0.544035 
-0.612500 0.424828 0.760897 
-0.337541 0.626805 0.756275 
-0.497954 0.600145 0.706736 
-0.525117 0.807405 0.409448 
0.077704 0.985850 0.328775 
-0.933433 0.256984 0.379147 
-0.038254 0.960442 0.395859 
-0.881076 0.363587 0.432618 
-0.439602 0.872543 0.360214 
[...]
POINT_DATA 2044
SCALARS u float 1
LOOKUP_TABLE default
2.157875
6.466533
2.271673
6.829686
4.078174
2.147037
2.362023
2.756965
3.078594
3.428839
3.902357
4.336200
4.748988
5.151354
5.535838
5.909049
6.171768
6.446389
6.627429
6.750633
6.801838
6.739364
6.620928
6.386835
6.097021
5.757501
5.338561
4.898212
4.441922
3.958753
3.470362
3.023191
2.677691
2.435329
2.214972
2.404312
2.669130
3.005098
3.374354
3.771195
4.200942
4.617052
5.008507
5.372566
5.667216
5.909673
6.134076
6.304293
6.441313
6.471849
6.397884
6.294549
6.132877
5.889068
5.649810
5.328569
4.960627
4.576738
4.128480
3.704785
3.289411
2.917193
2.575799
2.357530
2.142129
1.782609
1.506971
1.331997
1.333668
1.465443
1.819476
2.051493
2.427795
2.758106
3.181470
3.482361
3.640402
3.847719
3.971958
4.062506
3.952338
3.502027
2.818151
2.125192
1.264149
0.313527
0.754424
1.764845
2.751222
3.673189
4.544543
5.325026
5.949644
6.393656
6.554867
4.023395
3.952593
3.835777
3.568967
3.247050
2.860244
2.428691
1.987427
1.666807
1.347541
1.193881
1.090500
1.294579
1.559879
1.921448
3.966482
3.587259
3.068071
2.219056
1.279167
0.254023
0.941059
2.012492
3.018089
4.001073
4.916532
5.700256
6.286144
6.710068
6.900785
2.234838
2.279382
4.910307
2.032160
1.980939
1.850478
1.982921
4.608806
2.336721
1.995629
3.653676
1.810600
3.915477
1.794880
0.981004
3.707315
3.187137
1.776700
1.814007
4.927479
3.459480
1.623916
5.741393
3.169465
2.896564
1.557380
2.420106
5.540260
6.190193
3.683134
2.655252
1.465587
2.438274
2.903805
5.954963
6.304228
3.801005
1.609856
2.390415
1.756194
1.968124
3.241790
3.581340
1.894999
3.037569
1.837475
2.412180
2.119723
3.290465
5.959373
5.383114
2.744794
2.773466
1.535710
4.022543
1.907762
1.509416
4.263150
5.198506
2.675241
1.310129
3.524524
1.953757
4.885229
2.522137
1.837545
2.365636
4.811093
4.220678
1.841162
0.439956
3.406556
2.767405
1.096462
1.117859
4.315663
1.994580
4.092195
5.566149
3.153522
5.380941
2.372588
6.184556
3.488261
2.682474
1.790039
2.730200
5.613379
1.713450
2.403541
1.231785
4.255137
5.822548
3.509086
6.016593
3.622915
1.751514
4.951248
6.324770
3.527000
2.969705
5.885030
2.092009
2.895301
3.022361
2.017128
2.024489
2.697011
2.447246
4.953952
2.430911
2.915121
1.826108
2.866280
2.051645
1.988405
1.958458
3.210397
3.236112
1.837192
2.169140
2.547404
1.752741
2.152371
3.984465
2.056332
2.013427
3.638148
2.670652
2.112197
1.843478
3.400997
2.014264
1.217640
2.274574
4.258613
1.993988
1.972348
2.875564
5.352008
2.011827
4.303827
1.688956
3.377575
3.786394
1.838685
3.899725
6.441054
1.449173
3.044493
3.371069
1.502784
2.596486
2.207492
4.515976
6.499061
4.047096
3.825121
6.485894
4.757650
2.378325
5.181416
2.755194
4.387484
2.058166
4.850969
2.386664
3.600478
1.826253
5.466539
2.703661
2.382157
2.720985
3.195695
3.702252
4.017381
2.149442
4.571085
1.772517
2.245666
1.236635
2.260008
5.623995
3.909557
1.064033
2.665508
6.156418
3.406525
3.270807
4.573618
5.069991
1.550050
1.604348
3.058258
6.322742
3.119288
6.006689
1.623760
3.548144
2.313985
2.952905
6.427429
2.838838
6.287561
1.691233
3.741136
3.244866
3.969331
2.494967
2.280303
3.683248
2.654270
2.197046
1.593119
2.083312
4.114658
5.709575
1.863823
5.252848
2.116624
4.687054
3.952963
4.298324
2.708362
5.567710
3.362060
4.541717
1.877914
3.664441
5.174506
3.138165
5.912832
1.696196
2.293914
2.410126
4.837812
3.008183
5.060409
4.279612
5.681683
4.397497
5.234346
5.991536
3.854437
1.981423
2.631741
4.333742
1.298278
6.185517
2.965927
6.282616
2.090623
3.559129
4.197276
2.512348
5.969630
3.083962
3.706950
5.896308
5.008337
1.226375
5.543285
1.349174
3.530108
6.170050
6.515320
2.422760
2.663987
6.364172
2.760734
2.531248
2.847817
3.296823
1.863657
2.023322
2.437209
3.701788
1.777604
2.267739
1.386557
2.227853
2.265850
1.627570
2.006081
2.178803
2.215300
3.913926
3.066086
1.830490
2.001881
2.824572
3.411897
2.255099
2.569074
2.250252
3.241100
3.633179
4.928366
2.464081
3.056311
4.833915
5.237199
1.908538
2.193434
1.584278
3.999154
1.347373
2.308320
1.272500
2.485904
2.583209
0.569647
6.537580
1.950518
3.312728
1.590612
0.912783
3.002125
1.853992
3.077701
2.140602
6.551784
2.310357
6.553501
2.685982
2.319201
1.798585
3.353357
1.573860
2.688451
1.823051
2.065201
1.748051
2.936014
3.858620
4.002162
1.869879
2.345387
5.589440
2.481924
2.983872
3.346959
1.885341
4.237950
4.530456
2.126077
1.901286
2.198750
1.582340
3.640404
5.603394
2.564736
1.318902
3.065514
6.331818
4.624301
3.070983
1.231431
5.340062
2.973846
1.780291
2.784315
6.583937
1.341089
6.309795
2.467092
3.443371
2.938760
2.534674
6.709384
1.464124
6.577416
3.006501
3.570001
2.201481
2.525099
2.432502
3.770124
1.573957
2.177016
2.013290
3.961054
1.474598
5.972573
1.771245
5.450614
3.819615
4.682807
2.391218
4.421710
3.083539
5.623077
1.575088
4.751166
5.183243
3.439374
6.045183
2.812464
2.610332
1.751224
4.965272
2.069815
5.113738
2.709330
5.693289
4.065109
5.206117
4.204178
3.552879
6.141511
2.794789
1.892610
1.059730
4.652540
2.618597
6.347252
1.763659
6.510250
3.978530
3.388390
6.174431
2.131767
2.629570
3.206488
5.957946
3.396702
1.054027
5.357668
1.124853
5.892970
6.378807
3.176482
2.139432
6.810382
6.569403
2.321205
2.460264
2.767813
3.348420
2.683638
1.984710
1.826451
2.368874
1.511719
3.937659
1.455272
2.306165
2.212833
2.106815
2.041110
2.108263
2.017105
2.868488
3.935762
2.046860
1.685470
2.064646
3.551844
2.133552
2.669366
2.885019
3.478877
3.340044
4.832306
3.136447
2.340145
5.221373
4.702237
2.386532
1.846426
4.291338
1.307546
2.176836
1.330464
2.318737
1.339033
0.940284
2.513470
1.783290
6.878602
1.686996
3.242384
2.990422
0.898609
3.281379
1.732066
6.891038
2.039827
6.873726
2.097822
1.929755
1.784539
2.512539
3.625014
1.361357
0.551072
1.943907
2.015876
3.186366
1.575984
3.864242
3.566256
3.955114
3.714655
2.448299
5.339465
2.140980
2.163417
1.959545
1.908815
1.835130
1.902589
4.941851
2.195483
2.232763
3.963718
1.978794
4.116104
1.997473
4.086258
0.960459
3.460372
1.610141
5.323682
1.915128
1.557483
3.826613
6.075667
3.232560
1.540717
2.986384
5.944343
2.589744
6.509945
3.671741
2.833608
1.369807
2.506735
6.329460
3.101564
6.666810
3.802463
2.323635
1.500884
3.412524
1.917669
3.877178
1.776366
1.952768
3.292564
2.461372
2.423911
6.282817
3.351611
5.703072
2.750221
3.108760
1.602418
4.429767
1.768165
4.703779
1.536084
5.498105
2.721824
1.293693
3.904565
1.987013
5.299230
2.834664
1.943666
2.195452
5.174052
1.672218
4.669023
0.390720
3.747645
1.194569
3.104771
4.675872
1.086610
2.043436
4.338129
5.850503
3.231959
5.786715
2.463071
6.523308
3.496944
1.943699
3.134464
2.803120
5.987583
1.674639
2.410030
1.263358
4.655532
6.136035
3.463682
6.351049
3.609809
1.847080
5.351464
6.613919
3.564361
3.069965
6.276112
3.019027
2.106317
1.957964
3.202852
2.893390
2.142388
2.499840
5.218152
2.566552
1.890074
3.082783
2.116108
2.933712
2.825570
3.421637
1.905354
3.480593
1.768819
2.416227
2.061084
4.324918
1.901160
3.917003
1.860106
2.611674
2.127199
2.674137
2.139633
1.881759
3.624098
1.516540
2.582451
2.157620
4.491056
2.884249
5.632170
4.527841
2.080476
3.589928
1.758100
1.757223
4.063723
6.808754
3.953035
1.431584
3.219986
3.555754
1.668399
2.248710
4.771138
4.008076
6.878555
3.894659
6.830130
1.724894
4.996692
2.539812
5.447719
2.895478
1.945061
4.616754
2.163996
2.510184
5.102896
2.215454
1.538787
2.486267
1.232718
2.336423
2.283072
1.142475
1.835849
1.976589
1.966593
2.040118
3.318607
2.518277
2.108403
1.457158
2.242490
2.246439
2.946998
2.050833
2.200664
3.771990
2.421718
3.539118
1.418406
3.853678
2.263959
2.286170
4.490200
3.861627
3.402065
1.554068
0.832891
2.352442
2.858163
2.786772
4.215815
3.285199
3.508470
1.188037
1.782875
2.258073
1.245632
0.988936
2.066623
2.344531
1.995625
4.263452
2.202193
4.804754
2.623268
2.433777
2.169492
2.148562
2.624657
4.773635
5.245229
5.010411
3.293753
1.222400
2.419385
2.695544
2.267606
2.449248
2.289132
2.044781
2.264881
3.780100
2.005795
2.338969
2.452886
2.104815
2.317894
2.559815
5.069017
3.321693
4.700278
2.939978
2.759099
2.194240
1.949396
4.358353
1.644330
1.958205
2.417734
1.003620
2.153839
2.282930
2.087892
2.669287
0.325680
1.059185
2.878082
2.453928
1.608744
4.444914
5.154701
3.591285
4.350068
2.911288
2.092937
2.231091
1.716159
0.206909
2.347751
1.427487
2.358328
2.207960
1.940359
2.278205
5.314011
1.959086
5.251343
5.750118
2.626462
2.946229
2.167748
4.166219
5.188972
2.518300
2.216807
3.232060
0.682736
1.994231
1.521836
1.719994
2.247148
2.528551
3.639547
2.103879
3.216307
2.282507
2.613115
2.107658
2.037914
5.669063
5.455779
2.664087
2.880989
1.447324
0.672369
3.594262
3.661737
2.361608
5.227645
3.270183
4.568508
4.322634
2.719692
2.437188
3.260569
1.397026
1.505748
2.323674
2.224933
2.062649
2.186778
2.228979
1.826237
2.403451
1.643921
2.271150
2.218398
2.040753
4.084429
3.983323
1.088023
3.571397
4.982265
1.229711
3.912258
2.380367
1.979235
1.666911
2.256737
1.688157
2.446180
2.343721
2.064332
1.952685
0.655614
2.200988
3.289347
2.503957
2.203732
2.786731
2.239607
2.205120
5.999028
5.882398
2.441025
2.251444
2.683194
4.270966
2.665379
5.117921
2.415382
4.641172
2.363052
3.437292
2.880498
2.348146
2.322538
4.530168
3.946959
5.491518
1.091711
2.334095
2.425972
1.323382
2.248149
5.311445
2.230138
5.777736
3.001041
2.684090
4.652468
4.422967
2.955463
3.993946
5.612605
5.000704
2.242446
2.330772
2.343284
3.750660
3.031240
2.078204
4.979629
5.033566
2.314651
1.640394
2.423071
2.246677
3.688335
2.232383
2.421257
2.138841
2.062275
2.367199
6.139218
5.895847
1.785898
3.692568
2.396088
4.287042
2.616977
1.964361
5.737045
1.803615
2.186045
5.910961
5.421216
3.754445
2.316322
1.808719
1.390366
2.431150
4.494974
1.638573
3.495918
1.468734
3.169464
2.159854
2.388589
3.419955
1.843722
2.524440
2.189729
2.160405
0.817229
2.297625
0.851379
1.879152
4.469905
2.163601
2.488621
5.095784
3.775516
4.219428
4.753126
2.290248
3.478406
4.118500
2.769156
4.806329
1.703981
3.013171
2.337512
2.349062
5.622614
2.306811
2.270668
2.811853
0.314255
2.850512
2.229919
2.379027
1.457563
2.186398
2.608777
3.975184
5.059047
3.024223
2.309879
1.360904
1.709605
2.241360
5.775995
3.105602
2.020388
1.757615
2.333727
0.615342
2.298799
1.772634
1.793612
2.375068
2.399701
1.306046
2.424240
2.223815
4.446079
2.591296
3.949443
3.998073
1.945513
2.288303
2.977191
3.834955
1.857703
2.228729
2.322272
4.183938
3.129621
1.802519
3.145001
4.780612
2.894553
2.410693
2.043287
2.320854
2.305070
3.244725
1.837611
2.474493
2.761556
2.058078
1.864363
2.017442
5.000662
1.945655
3.019494
1.038386
4.474563
2.918621
2.484559
2.107956
0.961940
2.204542
1.713369
3.147558
3.471400
3.901632
3.987555
0.345711
1.248154
2.281562
1.894759
2.333560
0.653840
2.112892
2.463825
3.329875
0.833021
4.534362
3.969700
2.221592
2.165545
1.925501
5.722774
2.537424
3.984019
2.297179
2.150248
4.555449
3.260348
2.436944
2.249157
3.816310
2.601386
1.091605
3.234489
3.520237
1.319366
2.067288
1.924976
2.099265
2.076879
5.986037
1.685328
2.381872
2.516034
0.873862
2.668540
2.249549
2.557926
2.620057
2.395881
4.758209
4.208394
2.407806
2.330625
2.247813
0.712446
1.384817
1.767840
1.806808
1.635042
1.748134
1.692159
1.573801
1.858265
2.219545
2.247517
2.529439
2.366242
1.934862
2.057340
2.343183
1.530038
1.848947
3.570679
2.535979
3.132366
3.610380
3.651212
2.787870
3.697067
3.563726
3.260442
3.564357
2.875057
3.253296
3.448800
2.766885
3.069828
3.188251
2.654195
2.150292
2.049359
3.881918
3.772142
3.457283
3.116564
3.236842
2.623974
2.571889
0.934974
2.342163
2.744342
2.517005
3.316878
2.060633
2.653586
0.285957
1.099540
1.224276
2.022128
1.886194
1.992936
2.406620
1.986514
1.819965
3.759494
1.905326
3.332420
1.067762
2.114844
2.958188
1.310702
0.860873
0.525507
0.735380
2.790389
1.748850
4.493008
5.226862
4.608998
3.770456
2.806298
2.950664
2.745334
2.647242
4.557352
5.115771
4.824505
2.699612
2.064063
1.723324
1.936060
2.365046
1.543965
3.320807
2.342323
0.529812
1.383113
2.220617
2.932885
1.707372
1.986750
2.062694
2.295946
2.091724
2.669864
1.604340
2.050237
1.580934
1.629782
2.206559
2.820402
2.050725
3.009590
1.711224
2.921726
2.851734
3.548277
2.805021
3.438249
2.218662
2.742582
2.316909
2.294505
1.685467
2.359570
1.586922
1.463687
5.773128
1.980631
1.852333
1.776861
0.701173
3.359738
3.573207
3.456462
3.839573
2.606888
3.711562
2.902965
2.539981
1.759862
1.870764
1.991754
2.134647
2.073758
1.715951
2.046652
2.298040
1.881275
2.166460
2.352958
4.545012
2.994163
1.897906
1.385517
2.186740
1.875541
1.822659
2.791102
1.690391
1.082026
3.200888
2.979600
2.040111
2.238949
2.490018
4.578529
1.737402
1.753570
1.723166
1.671374
1.662195
2.314843
3.570158
3.677415
4.776631
0.500685
3.376176
2.136706
2.528572
2.144693
2.117016
2.549695
1.746298
1.812552
1.878217
1.748429
1.863661
1.828955
1.761765
2.022743
3.230745
3.897007
3.724639
2.378246
2.752024
3.635469
3.475601
3.643732
1.924464
3.857085
3.382820
4.284240
4.202460
2.920202
1.080898
2.378196
2.132839
2.197862
1.706605
1.999626
1.659860
1.752836
0.527194
2.172443
2.235521
4.592735
0.352038
2.543596
0.353647
1.238614
0.975506
1.196349
0.482906
2.318526
1.897980
1.891989
1.507322
0.962566
1.259339
3.227572
4.310006
3.372220
1.864460
4.645620
2.633770
1.770787
3.658622
2.690302
2.679826
1.742729
3.343452
3.084384
0.993422
1.822350
1.094162
3.061078
1.881131
0.933022
1.058369
0.908183
3.354337
2.071598
3.090013
2.617724
1.939892
1.790821
1.661958
1.458391
1.753595
1.978442
2.492522
2.094490
2.382253
3.504365
2.485768
2.999804
3.902296
5.824454
5.816467
4.902780
5.861123
4.887355
5.732942
5.917015
5.730055
3.779554
3.835787
3.440728
3.399241
3.786869
3.887367
3.910957
2.308567
2.155298
2.019008
1.867324
1.908438
1.769726
1.747666
1.787311
1.587144
2.406916
2.543500
2.357320
2.300109
5.096733
4.328824
5.227929
4.491815
3.632564
3.060934
4.627165
1.773382
2.588951
3.913430
4.496591
3.370939
4.632834
1.679608
1.888969
1.475776
1.487472
1.783598
1.915532
2.429286
1.891213
2.146665
2.173772
1.954732
2.865467
2.764271
2.496692
3.323591
3.187264
1.838354
2.981539
0.561012
1.753390
2.557295
2.131104
1.061427
0.832146
3.753481
1.524932
2.363331
1.082630
0.969590
1.621404
2.471718
2.274891
1.675276
2.481042
2.636932
1.573934
1.582469
3.162622
1.633860
1.628109
1.161662
1.249723
2.491447
2.743990
1.618861
1.484210
1.911847
1.732256
1.860806
2.396913
1.445645
2.043326
2.242834
1.643750
1.802710
1.659391
0.729754
0.804060
0.114960
1.429600
1.896816
2.681856
3.326027
2.987335
2.870170
1.739274
1.858889
1.632432
1.785817
2.059132
2.244130
0.581014
0.575366
2.860215
2.131954
2.631853
4.997067
2.881672
1.902150
1.705523
1.814967
2.072929
2.045988
3.377366
2.226974
3.172626
3.530664
4.035666
3.646178
1.822648
1.955671
1.842104
1.863579
1.404421
2.210591
0.735463
1.844195
0.797893
1.067634
0.269211
0.656107
1.945925
2.352396
2.096269
1.738960
1.978970
3.556059
1.537108
1.417507
1.901706
1.690871
2.048463
1.904432
2.035317
2.135927
2.097865
2.121124
2.019201
2.075551
2.366414
1.017117
2.004537
1.905084
1.926520
3.868876
1.878834
2.118038
1.887451
2.053431
2.721817
1.992383
1.933771
4.056765
4.260082
3.227490
3.081308
1.676714
1.773436
1.691308
3.239449
1.879865
4.924218
1.971098
1.949346
3.099124
0.330851
0.947109
0.372509
2.155929
1.770790
1.655505
4.944479
1.187027
1.900798
1.889946
1.850505
2.071595
1.040266
1.146493
2.305549
2.173745
1.979704
1.970862
2.027906
0.964132
4.418969
2.132047
2.146191
2.369071
2.180114
3.745069
1.842218
1.748170
1.732713
2.465931
1.822996
1.777063
1.354945
1.345275
2.352481
3.040300
2.254513
2.855903
2.119454
2.498807
3.024733
3.266412
1.809066
1.776366
2.268679
2.186812
2.747318
3.284147
2.920017
4.261250
3.409554
3.642606
3.196224
2.601135
3.279023
3.513634
2.765042
2.197777
1.892684
2.120839
1.435066
1.601269
1.590489
1.918979
1.380615
1.140510
0.850048
2.793451
1.252625
2.985508
2.039450
1.907600
1.673383
1.881396
1.979715
1.315638
1.461145
1.530784
1.664853
0.604623
1.064860
0.943521
1.213857
1.452599
1.828171
3.027727
1.582352
1.578663
1.788045
1.988904
2.301530
1.628980
1.866631
2.134908
1.835508
1.850073
0.934146
3.008988
3.114352
1.968316
1.942869
2.133531
3.997123
5.024204
4.126866
4.022916
2.561729
3.400960
2.414492
1.809882
1.615441
2.167474
4.367058
2.094793
2.191816
2.022548
1.965219
2.002334
3.830086
3.389704
3.884851
3.916895
3.791494
1.930299
2.155234
1.047018
0.516534
1.936099
2.000045
2.176590
2.221499
3.625070
4.290638
4.165626
3.307591
1.907079
1.864678
3.990433
2.052859
2.414373
1.603346
4.008221
2.105460
2.141980
4.946222
1.300164
1.623402
2.610616
3.200988
2.492611
2.020522
1.988363
2.036553
2.049350
2.114564
5.129165
5.012607
1.992764
1.936459
2.649947
1.882816
1.832944
2.997023
3.059826
1.649258
2.338128
1.869172
1.768798
2.252380
2.232663
2.447184
1.584065
1.502871
1.488346
2.892268
2.751985
2.070267
2.379907
2.222058
2.302351
4.048479
2.892436
3.020561
1.991994
2.091108
2.534278
2.793046
2.248010
2.356207
1.253188
1.506808
3.783197
1.953717
2.235188
1.995686
2.169978
1.886980
3.957734
3.830032
1.611137
4.316157
4.184091
1.700556
1.759747
1.760363
1.799659
1.604105
1.612167
1.780404
1.799669
2.170619
2.241787
1.964777
1.979046
2.071648
1.917848
0.421373
1.029522
2.168507
2.433221
2.041912
1.781402
1.743324
4.132172
1.852397
4.086056
4.244330
3.900034
2.833717
2.146747
1.880854
2.091524
1.236113
1.977173
1.281290
0.813768
0.943407
0.398032
2.247025
2.004604
2.099072
1.908458
2.162157
2.086347
1.846841
1.629368
1.947909
0.825604
5.013631
4.886326
3.499168
1.607607
4.921911
3.087801
2.330243
2.619803
4.952946
4.040793
1.847275
1.901087
4.932695
1.935033
1.862648
2.534149
1.305032
1.344507
1.908500
1.773005
4.784066
3.399905
1.902182
1.506384
1.616905
2.077551
0.926069
0.862168
2.433234
2.055560
2.209240
1.840610
1.892231
3.230754
1.451560
1.703748
0.952926
1.157531
0.969849
2.082736
4.181662
2.920841
2.864554
1.708611
1.711695
2.585400
2.648307
2.526039
2.079590
2.934766
2.377753
2.160590
2.192652
2.146960
2.765702
2.476851
2.434702
2.128932
2.545785
2.294917
2.526660
2.225872
2.119323
2.078120
2.307891
2.168966
2.204998
2.891228
3.042515
2.990107
2.940808
2.480538
2.975545
3.132602
2.963171
2.782780
2.886603
2.307678
2.330548
2.381884
2.262230
2.042449
2.274307
2.096102
2.695998
2.690310
2.351689
1.834933
1.916970
1.793414
2.446592
0.598554
0.379360
0.926447
1.267360
1.945967
2.026245
1.971678
1.930724
2.043724
1.808930
2.468102
2.475326
1.881481
1.812069
1.978762
1.909073
1.928202
0.290130
0.553403
0.407299
0.679565
2.835992
2.628533
1.355746
0.717192
1.044087
0.733246
1.638664
2.059650
1.691276
1.939580
1.978657
1.416354
2.151022
1.453736
1.208202
1.219861
1.468179
1.527928
1.768107
1.843421
2.261122
1.805715
1.536179
1.420052
1.743299
1.745427
