# vtk DataFile Version 2.0
Unstructured Grid Example
ASCII
DATASET UNSTRUCTURED_GRID
POINTS 2044 float
0.984969 0.001308 -0.064966 
0.199638 1.000059 -0.009579 
-1.001763 0.007898 0.069745 
0.210992 -1.006444 -0.000588 
-0.126017 0.000112 1.002802 
0.985662 -0.079483 -0.063004 
0.980141 -0.157812 -0.062767 
0.963492 -0.235713 -0.065116 
0.947584 -0.314405 -0.061889 
0.921124 -0.392516 -0.058926 
0.891551 -0.468109 -0.057345 
0.855064 -0.542984 -0.053608 
0.811709 -0.616078 -0.048136 
0.760025 -0.684754 -0.042164 
0.701459 -0.749244 -0.035088 
0.636374 -0.809137 -0.028998 
0.562546 -0.864505 -0.022633 
0.483997 -0.912907 -0.015326 
0.397549 -0.951683 -0.011101 
0.306360 -0.985501 -0.005776 
0.110788 -1.019405 0.003276 
0.008762 -1.022691 0.008778 
-0.093414 -1.011266 0.012960 
-0.198121 -0.991835 0.016944 
-0.301221 -0.959656 0.022576 
-0.401267 -0.915803 0.027302 
-0.499725 -0.862584 0.032672 
-0.592396 -0.797365 0.040185 
-0.679125 -0.722832 0.047041 
-0.757513 -0.639481 0.049604 
-0.827677 -0.545615 0.055265 
-0.888061 -0.445146 0.059553 
-0.936437 -0.338393 0.064146 
-0.970837 -0.226295 0.067772 
-0.991315 -0.109640 0.067355 
-0.992788 0.125784 0.068888 
-0.972000 0.242253 0.067114 
-0.935781 0.353395 0.064779 
-0.887071 0.459203 0.060558 
-0.829155 0.558728 0.056349 
-0.763385 0.651847 0.054354 
-0.685000 0.735245 0.049471 
-0.599173 0.809821 0.042000 
-0.507459 0.873003 0.038254 
-0.411193 0.924988 0.033036 
-0.310192 0.964392 0.023975 
-0.207426 0.994643 0.014918 
-0.103457 1.011357 0.010097 
0.000178 1.019475 0.003076 
0.100903 1.016118 -0.002306 
0.294201 0.975577 -0.015193 
0.385223 0.944429 -0.019449 
0.471457 0.907038 -0.024845 
0.550349 0.860659 -0.031973 
0.625501 0.807244 -0.034188 
0.691861 0.747559 -0.038838 
0.750801 0.683458 -0.044017 
0.804603 0.615982 -0.046916 
0.851982 0.546765 -0.048654 
0.888371 0.471197 -0.052492 
0.921243 0.395517 -0.055069 
0.946801 0.317601 -0.058038 
0.963925 0.238475 -0.060042 
0.975465 0.157832 -0.062394 
0.983607 0.078176 -0.062096 
0.982907 -0.000211 0.044306 
0.963060 0.000721 0.152023 
0.932927 0.000014 0.256844 
0.891497 -0.002060 0.357261 
0.841258 -0.002710 0.451631 
0.776930 -0.001745 0.541974 
0.709940 -0.001278 0.627993 
0.632221 -0.002752 0.703193 
0.549230 -0.001179 0.776599 
0.457334 -0.002099 0.835289 
0.363993 -0.002265 0.888564 
0.270717 -0.002755 0.934652 
0.171692 -0.001888 0.965624 
0.072586 -0.002872 0.988242 
-0.027389 -0.001526 1.001279 
-0.122151 0.098040 0.996578 
-0.108240 0.195219 0.980825 
-0.087101 0.290880 0.957071 
-0.065658 0.384451 0.924607 
-0.038973 0.473930 0.883073 
-0.009030 0.559020 0.832148 
0.023056 0.637744 0.772066 
0.054322 0.711525 0.704869 
0.084878 0.777163 0.631330 
0.113393 0.835788 0.552027 
0.140307 0.886033 0.466213 
0.164469 0.926628 0.377132 
0.183796 0.958692 0.284636 
0.197506 0.981388 0.188571 
0.202427 0.996817 0.089867 
-0.222347 0.000553 0.992750 
-0.317091 -0.000029 0.974426 
-0.408534 -0.000617 0.948444 
-0.492782 0.001447 0.917220 
-0.571612 0.001160 0.876671 
-0.643846 0.002473 0.827400 
-0.709446 0.000097 0.771584 
-0.768485 0.001990 0.708560 
-0.823820 0.004179 0.641807 
-0.870521 0.005085 0.569128 
-0.911570 0.005683 0.492616 
-0.942331 0.006750 0.410070 
-0.969442 0.007929 0.327458 
-0.985449 0.008971 0.242231 
-0.994776 0.007282 0.156956 
-0.122537 -0.098157 0.998967 
-0.110785 -0.197286 0.984664 
-0.094705 -0.292979 0.960937 
-0.068566 -0.383851 0.925056 
-0.039295 -0.475578 0.883166 
-0.006791 -0.559434 0.832238 
0.028855 -0.638023 0.773460 
0.062115 -0.710253 0.706130 
0.093138 -0.778202 0.634384 
0.123497 -0.837905 0.555364 
0.151749 -0.889845 0.470320 
0.176001 -0.931895 0.382408 
0.194142 -0.964568 0.289931 
0.207275 -0.987795 0.195787 
0.213177 -1.002097 0.097702 
0.779617 0.379393 0.444713 
0.276593 0.340619 0.867549 
0.479657 0.809375 0.360128 
0.891595 0.267195 0.286025 
0.931095 0.219066 0.201908 
0.946283 0.167376 0.173276 
0.968093 0.158912 0.084333 
0.635986 0.713301 0.299751 
0.460063 0.279351 0.795893 
0.323656 0.638701 0.673979 
0.792995 0.542943 0.263113 
0.687780 0.243254 0.624863 
0.830693 0.541257 0.155771 
0.713475 0.155191 0.614960 
0.194670 0.507481 0.818186 
0.318941 0.786440 0.525456 
0.883787 0.424903 0.176844 
0.794015 0.169807 0.501015 
0.081965 0.403885 0.899569 
0.286579 0.875534 0.408542 
0.489949 0.692536 0.508868 
0.389760 0.469427 0.753847 
0.585075 0.824280 0.127328 
0.328099 0.133765 0.900909 
0.921803 0.356829 0.113189 
0.867405 0.143419 0.394537 
0.017065 0.339431 0.939513 
0.261760 0.918159 0.335406 
0.466497 0.903692 0.091729 
0.169437 0.102995 0.959267 
0.952084 0.282190 0.036205 
0.905752 0.072347 0.320648 
0.592405 0.513665 0.577938 
-0.004412 0.274956 0.959105 
0.268199 0.939470 0.269984 
0.414621 0.930292 0.066934 
0.107873 0.078450 0.978350 
0.947319 0.087046 0.192847 
0.966340 0.216619 0.017592 
0.974049 0.077238 0.089210 
0.638409 0.368116 0.626360 
0.705803 0.543932 0.412234 
0.604902 0.643214 0.444449 
0.504353 0.402039 0.721828 
0.809033 0.469075 0.321110 
0.739894 0.293384 0.543356 
0.722418 0.429996 0.492764 
0.422122 0.593410 0.655141 
0.228675 0.166495 0.932886 
0.503196 0.871534 0.165879 
0.543485 0.815553 0.253131 
0.312015 0.242017 0.883993 
0.404148 0.674703 0.596688 
0.349379 0.557320 0.722966 
0.569235 0.701489 0.415481 
0.433723 0.380766 0.777787 
0.238185 0.436732 0.844989 
0.396968 0.797043 0.457247 
0.617283 0.769400 0.221475 
0.401067 0.213490 0.850921 
0.293694 0.495717 0.789294 
0.402537 0.740401 0.526378 
0.175033 0.383597 0.890423 
0.375702 0.844572 0.396215 
0.868654 0.364565 0.284550 
0.843444 0.222053 0.408898 
0.368746 0.308575 0.837541 
0.561283 0.764681 0.330920 
0.487553 0.755039 0.432448 
0.334508 0.401680 0.816814 
0.100977 0.559267 0.814079 
0.208115 0.798035 0.567076 
0.287717 0.724594 0.610131 
0.226206 0.588501 0.755235 
0.044079 0.480401 0.870178 
0.210357 0.857922 0.482298 
0.601038 0.258753 0.704635 
0.732812 0.614925 0.279612 
0.649418 0.785472 0.042428 
0.402749 0.061955 0.870008 
0.344150 0.885177 0.341233 
0.110230 0.336114 0.923758 
0.406171 0.916637 0.172759 
0.112926 0.176538 0.960462 
0.489373 0.618430 0.584412 
0.430781 0.521110 0.697723 
0.183395 0.273922 0.924485 
0.431609 0.872173 0.280721 
0.912226 0.164043 0.279076 
0.928167 0.287526 0.156325 
0.140006 0.464468 0.857762 
0.300736 0.830630 0.475996 
0.588454 0.835873 0.026523 
0.316716 0.048680 0.910905 
0.530577 0.871663 0.059249 
0.244925 0.074539 0.939506 
0.006981 0.417316 0.907159 
0.213419 0.895522 0.414872 
0.304578 0.953028 0.185972 
0.001912 0.189919 0.976817 
0.066926 0.266050 0.951590 
0.336829 0.916959 0.265572 
0.614902 0.434506 0.613082 
0.656670 0.536993 0.488831 
0.604383 0.584063 0.504284 
0.549956 0.452231 0.659173 
0.731412 0.362093 0.524448 
0.771681 0.446469 0.406742 
0.663664 0.469637 0.535431 
0.683639 0.713763 0.203807 
0.490557 0.197208 0.803459 
0.849542 0.427430 0.276245 
0.790926 0.258047 0.483612 
0.712882 0.492151 0.451352 
0.677930 0.400532 0.568907 
0.773164 0.320174 0.483309 
0.685241 0.326763 0.592542 
0.755940 0.514670 0.364728 
0.551703 0.638081 0.508023 
0.474950 0.460748 0.707431 
0.829215 0.310353 0.389640 
0.820558 0.402488 0.356199 
0.879183 0.196486 0.346428 
0.954411 0.216803 0.110283 
0.661198 0.650347 0.356880 
0.531026 0.324401 0.735544 
0.616663 0.314814 0.667274 
0.718864 0.581844 0.349844 
0.552401 0.576748 0.565408 
0.504549 0.537892 0.639817 
0.224758 0.669052 0.691552 
0.660240 0.591223 0.428588 
0.576961 0.382955 0.673118 
0.131300 0.651404 0.739333 
0.165726 0.726239 0.662475 
0.776321 0.604912 0.193368 
0.632020 0.189062 0.693292 
0.980592 0.066176 0.006440 
0.447477 0.130710 0.836766 
0.674550 0.750853 0.125063 
0.682230 0.071018 0.657501 
0.830832 0.575384 0.045131 
0.752770 0.225163 0.552455 
0.841065 0.484359 0.227745 
0.870294 0.500502 0.069881 
0.749714 0.077649 0.575837 
0.017661 0.085158 0.991020 
0.334868 0.961318 0.075580 
0.866151 0.059769 0.405846 
0.932506 0.358904 0.023406 
0.907896 0.421599 0.045500 
0.821948 0.074448 0.483995 
0.902224 0.344708 0.205684 
0.550818 0.226541 0.751493 
0.714759 0.662533 0.239594 
0.260814 0.985309 0.049224 
-0.064418 0.058230 1.000533 
-0.056308 0.124039 0.992236 
0.261721 0.979341 0.118436 
0.779591 0.648112 0.035799 
0.598010 0.062296 0.737305 
0.718140 0.717532 0.039424 
0.504625 0.063368 0.809557 
0.805163 0.599745 0.104735 
0.650051 0.118042 0.686332 
0.741154 0.674718 0.134746 
0.555146 0.139939 0.765533 
0.858933 0.489376 0.158507 
-0.465018 0.511824 0.767331 
-0.221776 0.936576 0.345301 
-0.842983 0.449226 0.368469 
-0.398422 0.350669 0.884339 
-0.334025 0.298967 0.923733 
-0.312426 0.218724 0.949812 
-0.275025 0.138860 0.973288 
-0.211612 0.851694 0.521378 
-0.801327 0.384647 0.534316 
-0.583060 0.780012 0.301128 
-0.256231 0.674176 0.722837 
-0.676438 0.336702 0.722508 
-0.160551 0.652943 0.761455 
-0.699890 0.224979 0.746689 
-0.388963 0.913226 0.228254 
-0.755369 0.629830 0.245985 
-0.223497 0.547656 0.829382 
-0.571557 0.250968 0.834849 
-0.245366 0.977635 0.149972 
-0.853701 0.500775 0.183262 
-0.713013 0.607605 0.423901 
-0.407692 0.842711 0.412737 
-0.000797 0.924460 0.421429 
-0.909002 0.192108 0.447888 
-0.206642 0.460909 0.884745 
-0.513942 0.181921 0.886493 
-0.160929 1.000960 0.102154 
-0.902766 0.417186 0.146217 
0.071745 0.975918 0.279843 
-0.958553 0.144714 0.320640 
-0.459554 0.103139 0.926919 
-0.162424 0.361926 0.930153 
-0.542572 0.664826 0.571442 
-0.088773 1.010775 0.092731 
-0.934102 0.342561 0.142182 
0.107925 0.989694 0.221417 
-0.974211 0.112846 0.269261 
-0.348614 0.115448 0.961684 
-0.207677 0.232465 0.969455 
-0.279202 0.062144 0.982682 
-0.387650 0.692703 0.653564 
-0.634720 0.497439 0.655386 
-0.372743 0.794855 0.529924 
-0.701792 0.536226 0.537310 
-0.590038 0.396826 0.761572 
-0.340586 0.600960 0.757029 
-0.499287 0.566134 0.705976 
-0.567332 0.755765 0.400923 
-0.013291 0.965210 0.328638 
-0.930922 0.232222 0.361588 
-0.119336 0.932304 0.394165 
-0.880387 0.332148 0.418210 
-0.495917 0.821380 0.351386 
[...]
POINT_DATA 2044
SCALARS u float 1
LOOKUP_TABLE default
2.157875
6.466533
2.271673
6.829686
4.078174
2.147037
2.362023
2.756965
3.078594
3.428839
3.902357
4.336200
4.748988
5.151354
5.535838
5.909049
6.171768
6.446389
6.627429
6.750633
6.801838
6.739364
6.620928
6.386835
6.097021
5.757501
5.338561
4.898212
4.441922
3.958753
3.470362
3.023191
2.677691
2.435329
2.214972
2.404312
2.669130
3.005098
3.374354
3.771195
4.200942
4.617052
5.008507
5.372566
5.667216
5.909673
6.134076
6.304293
6.441313
6.471849
6.397884
6.294549
6.132877
5.889068
5.649810
5.328569
4.960627
4.576738
4.128480
3.704785
3.289411
2.917193
2.575799
2.357530
2.142129
1.782609
1.506971
1.331997
1.333668
1.465443
1.819476
2.051493
2.427795
2.758106
3.181470
3.482361
3.640402
3.847719
3.971958
4.062506
3.952338
3.502027
2.818151
2.125192
1.264149
0.313527
0.754424
1.764845
2.751222
3.673189
4.544543
5.325026
5.949644
6.393656
6.554867
4.023395
3.952593
3.835777
3.568967
3.247050
2.860244
2.428691
1.987427
1.666807
1.347541
1.193881
1.090500
1.294579
1.559879
1.921448
3.966482
3.587259
3.068071
2.219056
1.279167
0.254023
0.941059
2.012492
3.018089
4.001073
4.916532
5.700256
6.286144
6.710068
6.900785
2.234838
2.279382
4.910307
2.032160
1.980939
1.850478
1.982921
4.608806
2.336721
1.995629
3.653676
1.810600
3.915477
1.794880
0.981004
3.707315
3.187137
1.776700
1.814007
4.927479
3.459480
1.623916
5.741393
3.169465
2.896564
1.557380
2.420106
5.540260
6.190193
3.683134
2.655252
1.465587
2.438274
2.903805
5.954963
6.304228
3.801005
1.609856
2.390415
1.756194
1.968124
3.241790
3.581340
1.894999
3.037569
1.837475
2.412180
2.119723
3.290465
5.959373
5.383114
2.744794
2.773466
1.535710
4.022543
1.907762
1.509416
4.263150
5.198506
2.675241
1.310129
3.524524
1.953757
4.885229
2.522137
1.837545
2.365636
4.811093
4.220678
1.841162
0.439956
3.406556
2.767405
1.096462
1.117859
4.315663
1.994580
4.092195
5.566149
3.153522
5.380941
2.372588
6.184556
3.488261
2.682474
1.790039
2.730200
5.613379
1.713450
2.403541
1.231785
4.255137
5.822548
3.509086
6.016593
3.622915
1.751514
4.951248
6.324770
3.527000
2.969705
5.885030
2.092009
2.895301
3.022361
2.017128
2.024489
2.697011
2.447246
4.953952
2.430911
2.915121
1.826108
2.866280
2.051645
1.988405
1.958458
3.210397
3.236112
1.837192
2.169140
2.547404
1.752741
2.152371
3.984465
2.056332
2.013427
3.638148
2.670652
2.112197
1.843478
3.400997
2.014264
1.217640
2.274574
4.258613
1.993988
1.972348
2.875564
5.352008
2.011827
4.303827
1.688956
3.377575
3.786394
1.838685
3.899725
6.441054
1.449173
3.044493
3.371069
1.502784
2.596486
2.207492
4.515976
6.499061
4.047096
3.825121
6.485894
4.757650
2.378325
5.181416
2.755194
4.387484
2.058166
4.850969
2.386664
3.600478
1.826253
5.466539
2.703661
2.382157
2.720985
3.195695
3.702252
4.017381
2.149442
4.571085
1.772517
2.245666
1.236635
2.260008
5.623995
3.909557
1.064033
2.665508
6.156418
3.406525
3.270807
4.573618
5.069991
1.550050
1.604348
3.058258
6.322742
3.119288
6.006689
1.623760
3.548144
2.313985
2.952905
6.427429
2.838838
6.287561
1.691233
3.741136
3.244866
3.969331
2.494967
2.280303
3.683248
2.654270
2.197046
1.593119
2.083312
4.114658
5.709575
1.863823
5.252848
2.116624
4.687054
3.952963
4.298324
2.708362
5.567710
3.362060
4.541717
1.877914
3.664441
5.174506
3.138165
5.912832
1.696196
2.293914
2.410126
4.837812
3.008183
5.060409
4.279612
5.681683
4.397497
5.234346
5.991536
3.854437
1.981423
2.631741
4.333742
1.298278
6.185517
2.965927
6.282616
2.090623
3.559129
4.197276
2.512348
5.969630
3.083962
3.706950
5.896308
5.008337
1.226375
5.543285
1.349174
3.530108
6.170050
6.515320
2.422760
2.663987
6.364172
2.760734
2.531248
2.847817
3.296823
1.863657
2.023322
2.437209
3.701788
1.777604
2.267739
1.386557
2.227853
2.265850
1.627570
2.006081
2.178803
2.215300
3.913926
3.066086
1.830490
2.001881
2.824572
3.411897
2.255099
2.569074
2.250252
3.241100
3.633179
4.928366
2.464081
3.056311
4.833915
5.237199
1.908538
2.193434
1.584278
3.999154
1.347373
2.308320
1.272500
2.485904
2.583209
0.569647
6.537580
1.950518
3.312728
1.590612
0.912783
3.002125
1.853992
3.077701
2.140602
6.551784
2.310357
6.553501
2.685982
2.319201
1.798585
3.353357
1.573860
2.688451
1.823051
2.065201
1.748051
2.936014
3.858620
4.002162
1.869879
2.345387
5.589440
2.481924
2.983872
3.346959
1.885341
4.237950
4.530456
2.126077
1.901286
2.198750
1.582340
3.640404
5.603394
2.564736
1.318902
3.065514
6.331818
4.624301
3.070983
1.231431
5.340062
2.973846
1.780291
2.784315
6.583937
1.341089
6.309795
2.467092
3.443371
2.938760
2.534674
6.709384
1.464124
6.577416
3.006501
3.570001
2.201481
2.525099
2.432502
3.770124
1.573957
2.177016
2.013290
3.961054
1.474598
5.972573
1.771245
5.450614
3.819615
4.682807
2.391218
4.421710
3.083539
5.623077
1.575088
4.751166
5.183243
3.439374
6.045183
2.812464
2.610332
1.751224
4.965272
2.069815
5.113738
2.709330
5.693289
4.065109
5.206117
4.204178
3.552879
6.141511
2.794789
1.892610
1.059730
4.652540
2.618597
6.347252
1.763659
6.510250
3.978530
3.388390
6.174431
2.131767
2.629570
3.206488
5.957946
3.396702
1.054027
5.357668
1.124853
5.892970
6.378807
3.176482
2.139432
6.810382
6.569403
2.321205
2.460264
2.767813
3.348420
2.683638
1.984710
1.826451
2.368874
1.511719
3.937659
1.455272
2.306165
2.212833
2.106815
2.041110
2.108263
2.017105
2.868488
3.935762
2.046860
1.685470
2.064646
3.551844
2.133552
2.669366
2.885019
3.478877
3.340044
4.832306
3.136447
2.340145
5.221373
4.702237
2.386532
1.846426
4.291338
1.307546
2.176836
1.330464
2.318737
1.339033
0.940284
2.513470
1.783290
6.878602
1.686996
3.242384
2.990422
0.898609
3.281379
1.732066
6.891038
2.039827
6.873726
2.097822
1.929755
1.784539
2.512539
3.625014
1.361357
0.551072
1.943907
2.015876
3.186366
1.575984
3.864242
3.566256
3.955114
3.714655
2.448299
5.339465
2.140980
2.163417
1.959545
1.908815
1.835130
1.902589
4.941851
2.195483
2.232763
3.963718
1.978794
4.116104
1.997473
4.086258
0.960459
3.460372
1.610141
5.323682
1.915128
1.557483
3.826613
6.075667
3.232560
1.540717
2.986384
5.944343
2.589744
6.509945
3.671741
2.833608
1.369807
2.506735
6.329460
3.101564
6.666810
3.802463
2.323635
1.500884
3.412524
1.917669
3.877178
1.776366
1.952768
3.292564
2.461372
2.423911
6.282817
3.351611
5.703072
2.750221
3.108760
1.602418
4.429767
1.768165
4.703779
1.536084
5.498105
2.721824
1.293693
3.904565
1.987013
5.299230
2.834664
1.943666
2.195452
5.174052
1.672218
4.669023
0.390720
3.747645
1.194569
3.104771
4.675872
1.086610
2.043436
4.338129
5.850503
3.231959
5.786715
2.463071
6.523308
3.496944
1.943699
3.134464
2.803120
5.987583
1.674639
2.410030
1.263358
4.655532
6.136035
3.463682
6.351049
3.609809
1.847080
5.351464
6.613919
3.564361
3.069965
6.276112
3.019027
2.106317
1.957964
3.202852
2.893390
2.142388
2.499840
5.218152
2.566552
1.890074
3.082783
2.116108
2.933712
2.825570
3.421637
1.905354
3.480593
1.768819
2.416227
2.061084
4.324918
1.901160
3.917003
1.860106
2.611674
2.127199
2.674137
2.139633
1.881759
3.624098
1.516540
2.582451
2.157620
4.491056
2.884249
5.632170
4.527841
2.080476
3.589928
1.758100
1.757223
4.063723
6.808754
3.953035
1.431584
3.219986
3.555754
1.668399
2.248710
4.771138
4.008076
6.878555
3.894659
6.830130
1.724894
4.996692
2.539812
5.447719
2.895478
1.945061
4.616754
2.163996
2.510184
5.102896
2.215454
1.538787
2.486267
1.232718
2.336423
2.283072
1.142475
1.835849
1.976589
1.966593
2.040118
3.318607
2.518277
2.108403
1.457158
2.242490
2.246439
2.946998
2.050833
2.200664
3.771990
2.421718
3.539118
1.418406
3.853678
2.263959
2.286170
4.490200
3.861627
3.402065
1.554068
0.832891
2.352442
2.858163
2.786772
4.215815
3.285199
3.508470
1.188037
1.782875
2.258073
1.245632
0.988936
2.066623
2.344531
1.995625
4.263452
2.202193
4.804754
2.623268
2.433777
2.169492
2.148562
2.624657
4.773635
5.245229
5.010411
3.293753
1.222400
2.419385
2.695544
2.267606
2.449248
2.289132
2.044781
2.264881
3.780100
2.005795
2.338969
2.452886
2.104815
2.317894
2.559815
5.069017
3.321693
4.700278
2.939978
2.759099
2.194240
1.949396
4.358353
1.644330
1.958205
2.417734
1.003620
2.153839
2.282930
2.087892
2.669287
0.325680
1.059185
2.878082
2.453928
1.608744
4.444914
5.154701
3.591285
4.350068
2.911288
2.092937
2.231091
1.716159
0.206909
2.347751
1.427487
2.358328
2.207960
1.940359
2.278205
5.314011
1.959086
5.251343
5.750118
2.626462
2.946229
2.167748
4.166219
5.188972
2.518300
2.216807
3.232060
0.682736
1.994231
1.521836
1.719994
2.247148
2.528551
3.639547
2.103879
3.216307
2.282507
2.613115
2.107658
2.037914
5.669063
5.455779
2.664087
2.880989
1.447324
0.672369
3.594262
3.661737
2.361608
5.227645
3.270183
4.568508
4.322634
2.719692
2.437188
3.260569
1.397026
1.505748
2.323674
2.224933
2.062649
2.186778
2.228979
1.826237
2.403451
1.643921
2.271150
2.218398
2.040753
4.084429
3.983323
1.088023
3.571397
4.982265
1.229711
3.912258
2.380367
1.979235
1.666911
2.256737
1.688157
2.446180
2.343721
2.064332
1.952685
0.655614
2.200988
3.289347
2.503957
2.203732
2.786731
2.239607
2.205120
5.999028
5.882398
2.441025
2.251444
2.683194
4.270966
2.665379
5.117921
2.415382
4.641172
2.363052
3.437292
2.880498
2.348146
2.322538
4.530168
3.946959
5.491518
1.091711
2.334095
2.425972
1.323382
2.248149
5.311445
2.230138
5.777736
3.001041
2.684090
4.652468
4.422967
2.955463
3.993946
5.612605
5.000704
2.242446
2.330772
2.343284
3.750660
3.031240
2.078204
4.979629
5.033566
2.314651
1.640394
2.423071
2.246677
3.688335
2.232383
2.421257
2.138841
2.062275
2.367199
6.139218
5.895847
1.785898
3.692568
2.396088
4.287042
2.616977
1.964361
5.737045
1.803615
2.186045
5.910961
5.421216
3.754445
2.316322
1.808719
1.390366
2.431150
4.494974
1.638573
3.495918
1.468734
3.169464
2.159854
2.388589
3.419955
1.843722
2.524440
2.189729
2.160405
0.817229
2.297625
0.851379
1.879152
4.469905
2.163601
2.488621
5.095784
3.775516
4.219428
4.753126
2.290248
3.478406
4.118500
2.769156
4.806329
1.703981
3.013171
2.337512
2.349062
5.622614
2.306811
2.270668
2.811853
0.314255
2.850512
2.229919
2.379027
1.457563
2.186398
2.608777
3.975184
5.059047
3.024223
2.309879
1.360904
1.709605
2.241360
5.775995
3.105602
2.020388
1.757615
2.333727
0.615342
2.298799
1.772634
1.793612
2.375068
2.399701
1.306046
2.424240
2.223815
4.446079
2.591296
3.949443
3.998073
1.945513
2.288303
2.977191
3.834955
1.857703
2.228729
2.322272
4.183938
3.129621
1.802519
3.145001
4.780612
2.894553
2.410693
2.043287
2.320854
2.305070
3.244725
1.837611
2.474493
2.761556
2.058078
1.864363
2.017442
5.000662
1.945655
3.019494
1.038386
4.474563
2.918621
2.484559
2.107956
0.961940
2.204542
1.713369
3.147558
3.471400
3.901632
3.987555
0.345711
1.248154
2.281562
1.894759
2.333560
0.653840
2.112892
2.463825
3.329875
0.833021
4.534362
3.969700
2.221592
2.165545
1.925501
5.722774
2.537424
3.984019
2.297179
2.150248
4.555449
3.260348
2.436944
2.249157
3.816310
2.601386
1.091605
3.234489
3.520237
1.319366
2.067288
1.924976
2.099265
2.076879
5.986037
1.685328
2.381872
2.516034
0.873862
2.668540
2.249549
2.557926
2.620057
2.395881
4.758209
4.208394
2.407806
2.330625
2.247813
0.712446
1.384817
1.767840
1.806808
1.635042
1.748134
1.692159
1.573801
1.858265
2.219545
2.247517
2.529439
2.366242
1.934862
2.057340
2.343183
1.530038
1.848947
3.570679
2.535979
3.132366
3.610380
3.651212
2.787870
3.697067
3.563726
3.260442
3.564357
2.875057
3.253296
3.448800
2.766885
3.069828
3.188251
2.654195
2.150292
2.049359
3.881918
3.772142
3.457283
3.116564
3.236842
2.623974
2.571889
0.934974
2.342163
2.744342
2.517005
3.316878
2.060633
2.653586
0.285957
1.099540
1.224276
2.022128
1.886194
1.992936
2.406620
1.986514
1.819965
3.759494
1.905326
3.332420
1.067762
2.114844
2.958188
1.310702
0.860873
0.525507
0.735380
2.790389
1.748850
4.493008
5.226862
4.608998
3.770456
2.806298
2.950664
2.745334
2.647242
4.557352
5.115771
4.824505
2.699612
2.064063
1.723324
1.936060
2.365046
1.543965
3.320807
2.342323
0.529812
1.383113
2.220617
2.932885
1.707372
1.986750
2.062694
2.295946
2.091724
2.669864
1.604340
2.050237
1.580934
1.629782
2.206559
2.820402
2.050725
3.009590
1.711224
2.921726
2.851734
3.548277
2.805021
3.438249
2.218662
2.742582
2.316909
2.294505
1.685467
2.359570
1.586922
1.463687
5.773128
1.980631
1.852333
1.776861
0.701173
3.359738
3.573207
3.456462
3.839573
2.606888
3.711562
2.902965
2.539981
1.759862
1.870764
1.991754
2.134647
2.073758
1.715951
2.046652
2.298040
1.881275
2.166460
2.352958
4.545012
2.994163
1.897906
1.385517
2.186740
1.875541
1.822659
2.791102
1.690391
1.082026
3.200888
2.979600
2.040111
2.238949
2.490018
4.578529
1.737402
1.753570
1.723166
1.671374
1.662195
2.314843
3.570158
3.677415
4.776631
0.500685
3.376176
2.136706
2.528572
2.144693
2.117016
2.549695
1.746298
1.812552
1.878217
1.748429
1.863661
1.828955
1.761765
2.022743
3.230745
3.897007
3.724639
2.378246
2.752024
3.635469
3.475601
3.643732
1.924464
3.857085
3.382820
4.284240
4.202460
2.920202
1.080898
2.378196
2.132839
2.197862
1.706605
1.999626
1.659860
1.752836
0.527194
2.172443
2.235521
4.592735
0.352038
2.543596
0.353647
1.238614
0.975506
1.196349
0.482906
2.318526
1.897980
1.891989
1.507322
0.962566
1.259339
3.227572
4.310006
3.372220
1.864460
4.645620
2.633770
1.770787
3.658622
2.690302
2.679826
1.742729
3.343452
3.084384
0.993422
1.822350
1.094162
3.061078
1.881131
0.933022
1.058369
0.908183
3.354337
2.071598
3.090013
2.617724
1.939892
1.790821
1.661958
1.458391
1.753595
1.978442
2.492522
2.094490
2.382253
3.504365
2.485768
2.999804
3.902296
5.824454
5.816467
4.902780
5.861123
4.887355
5.732942
5.917015
5.730055
3.779554
3.835787
3.440728
3.399241
3.786869
3.887367
3.910957
2.308567
2.155298
2.019008
1.867324
1.908438
1.769726
1.747666
1.787311
1.587144
2.406916
2.543500
2.357320
2.300109
5.096733
4.328824
5.227929
4.491815
3.632564
3.060934
4.627165
1.773382
2.588951
3.913430
4.496591
3.370939
4.632834
1.679608
1.888969
1.475776
1.487472
1.783598
1.915532
2.429286
1.891213
2.146665
2.173772
1.954732
2.865467
2.764271
2.496692
3.323591
3.187264
1.838354
2.981539
0.561012
1.753390
2.557295
2.131104
1.061427
0.832146
3.753481
1.524932
2.363331
1.082630
0.969590
1.621404
2.471718
2.274891
1.675276
2.481042
2.636932
1.573934
1.582469
3.162622
1.633860
1.628109
1.161662
1.249723
2.491447
2.743990
1.618861
1.484210
1.911847
1.732256
1.860806
2.396913
1.445645
2.043326
2.242834
1.643750
1.802710
1.659391
0.729754
0.804060
0.114960
1.429600
1.896816
2.681856
3.326027
2.987335
2.870170
1.739274
1.858889
1.632432
1.785817
2.059132
2.244130
0.581014
0.575366
2.860215
2.131954
2.631853
4.997067
2.881672
1.902150
1.705523
1.814967
2.072929
2.045988
3.377366
2.226974
3.172626
3.530664
4.035666
3.646178
1.822648
1.955671
1.842104
1.863579
1.404421
2.210591
0.735463
1.844195
0.797893
1.067634
0.269211
0.656107
1.945925
2.352396
2.096269
1.738960
1.978970
3.556059
1.537108
1.417507
1.901706
1.690871
2.048463
1.904432
2.035317
2.135927
2.097865
2.121124
2.019201
2.075551
2.366414
1.017117
2.004537
1.905084
1.926520
3.868876
1.878834
2.118038
1.887451
2.053431
2.721817
1.992383
1.933771
4.056765
4.260082
3.227490
3.081308
1.676714
1.773436
1.691308
3.239449
1.879865
4.924218
1.971098
1.949346
3.099124
0.330851
0.947109
0.372509
2.155929
1.770790
1.655505
4.944479
1.187027
1.900798
1.889946
1.850505
2.071595
1.040266
1.146493
2.305549
2.173745
1.979704
1.970862
2.027906
0.964132
4.418969
2.132047
2.146191
2.369071
2.180114
3.745069
1.842218
1.748170
1.732713
2.465931
1.822996
1.777063
1.354945
1.345275
2.352481
3.040300
2.254513
2.855903
2.119454
2.498807
3.024733
3.266412
1.809066
1.776366
2.268679
2.186812
2.747318
3.284147
2.920017
4.261250
3.409554
3.642606
3.196224
2.601135
3.279023
3.513634
2.765042
2.197777
1.892684
2.120839
1.435066
1.601269
1.590489
1.918979
1.380615
1.140510
0.850048
2.793451
1.252625
2.985508
2.039450
1.907600
1.673383
1.881396
1.979715
1.315638
1.461145
1.530784
1.664853
0.604623
1.064860
0.943521
1.213857
1.452599
1.828171
3.027727
1.582352
1.578663
1.788045
1.988904
2.301530
1.628980
1.866631
2.134908
1.835508
1.850073
0.934146
3.008988
3.114352
1.968316
1.942869
2.133531
3.997123
5.024204
4.126866
4.022916
2.561729
3.400960
2.414492
1.809882
1.615441
2.167474
4.367058
2.094793
2.191816
2.022548
1.965219
2.002334
3.830086
3.389704
3.884851
3.916895
3.791494
1.930299
2.155234
1.047018
0.516534
1.936099
2.000045
2.176590
2.221499
3.625070
4.290638
4.165626
3.307591
1.907079
1.864678
3.990433
2.052859
2.414373
1.603346
4.008221
2.105460
2.141980
4.946222
1.300164
1.623402
2.610616
3.200988
2.492611
2.020522
1.988363
2.036553
2.049350
2.114564
5.129165
5.012607
1.992764
1.936459
2.649947
1.882816
1.832944
2.997023
3.059826
1.649258
2.338128
1.869172
1.768798
2.252380
2.232663
2.447184
1.584065
1.502871
1.488346
2.892268
2.751985
2.070267
2.379907
2.222058
2.302351
4.048479
2.892436
3.020561
1.991994
2.091108
2.534278
2.793046
2.248010
2.356207
1.253188
1.506808
3.783197
1.953717
2.235188
1.995686
2.169978
1.886980
3.957734
3.830032
1.611137
4.316157
4.184091
1.700556
1.759747
1.760363
1.799659
1.604105
1.612167
1.780404
1.799669
2.170619
2.241787
1.964777
1.979046
2.071648
1.917848
0.421373
1.029522
2.168507
2.433221
2.041912
1.781402
1.743324
4.132172
1.852397
4.086056
4.244330
3.900034
2.833717
2.146747
1.880854
2.091524
1.236113
1.977173
1.281290
0.813768
0.943407
0.398032
2.247025
2.004604
2.099072
1.908458
2.162157
2.086347
1.846841
1.629368
1.947909
0.825604
5.013631
4.886326
3.499168
1.607607
4.921911
3.087801
2.330243
2.619803
4.952946
4.040793
1.847275
1.901087
4.932695
1.935033
1.862648
2.534149
1.305032
1.344507
1.908500
1.773005
4.784066
3.399905
1.902182
1.506384
1.616905
2.077551
0.926069
0.862168
2.433234
2.055560
2.209240
1.840610
1.892231
3.230754
1.451560
1.703748
0.952926
1.157531
0.969849
2.082736
4.181662
2.920841
2.864554
1.708611
1.711695
2.585400
2.648307
2.526039
2.079590
2.934766
2.377753
2.160590
2.192652
2.146960
2.765702
2.476851
2.434702
2.128932
2.545785
2.294917
2.526660
2.225872
2.119323
2.078120
2.307891
2.168966
2.204998
2.891228
3.042515
2.990107
2.940808
2.480538
2.975545
3.132602
2.963171
2.782780
2.886603
2.307678
2.330548
2.381884
2.262230
2.042449
2.274307
2.096102
2.695998
2.690310
2.351689
1.834933
1.916970
1.793414
2.446592
0.598554
0.379360
0.926447
1.267360
1.945967
2.026245
1.971678
1.930724
2.043724
1.808930
2.468102
2.475326
1.881481
1.812069
1.978762
1.909073
1.928202
0.290130
0.553403
0.407299
0.679565
2.835992
2.628533
1.355746
0.717192
1.044087
0.733246
1.638664
2.059650
1.691276
1.939580
1.978657
1.416354
2.151022
1.453736
1.208202
1.219861
1.468179
1.527928
1.768107
1.843421
2.261122
1.805715
1.536179
1.420052
1.743299
1.745427
