# vtk DataFile Version 2.0
Unstructured Grid Example
ASCII
DATASET UNSTRUCTURED_GRID
POINTS 2044 float
0.995398 0.000401 -0.019890 
0.061120 1.000018 -0.002933 
-1.000540 0.002418 0.021353 
0.064596 -1.001973 -0.000180 
-0.038580 0.000034 1.000858 
0.992269 -0.092343 -0.019289 
0.980588 -0.183677 -0.019216 
0.958946 -0.273577 -0.019935 
0.931137 -0.361780 -0.018948 
0.893923 -0.447247 -0.018041 
0.849864 -0.528794 -0.017556 
0.798131 -0.606408 -0.016412 
0.739131 -0.679238 -0.014737 
0.672856 -0.745991 -0.012909 
0.600234 -0.806296 -0.010742 
0.521905 -0.859638 -0.008878 
0.437749 -0.905702 -0.006929 
0.349590 -0.943460 -0.004692 
0.257074 -0.971876 -0.003399 
0.161802 -0.992220 -0.001768 
-0.034091 -1.002600 0.001003 
-0.132680 -0.993615 0.002687 
-0.230012 -0.973572 0.003968 
-0.326179 -0.944684 0.005187 
-0.419297 -0.905720 0.006912 
-0.508330 -0.857289 0.008359 
-0.593164 -0.800434 0.010003 
-0.671988 -0.734740 0.012303 
-0.744267 -0.661469 0.014402 
-0.808828 -0.581260 0.015187 
-0.865314 -0.494119 0.016920 
-0.912914 -0.401807 0.018232 
-0.950663 -0.305013 0.019639 
-0.977739 -0.204644 0.020749 
-0.994000 -0.101576 0.020621 
-0.994451 0.106518 0.021090 
-0.978096 0.209529 0.020547 
-0.950462 0.309606 0.019832 
-0.912610 0.406110 0.018540 
-0.865767 0.498133 0.017252 
-0.810625 0.585046 0.016641 
-0.746066 0.665269 0.015146 
-0.674063 0.738553 0.012858 
-0.595532 0.803624 0.011712 
-0.511369 0.860100 0.010114 
-0.422043 0.907170 0.007340 
-0.329028 0.945544 0.004567 
-0.233087 0.973600 0.003091 
-0.135308 0.992630 0.000942 
-0.037117 1.001594 -0.000706 
0.158079 0.989182 -0.004651 
0.253300 0.969655 -0.005954 
0.345751 0.941662 -0.007606 
0.434015 0.904524 -0.009789 
0.518576 0.859059 -0.010467 
0.597296 0.805780 -0.011890 
0.670032 0.745594 -0.013476 
0.736956 0.679209 -0.014363 
0.797188 0.607566 -0.014896 
0.848890 0.529739 -0.016070 
0.893960 0.448166 -0.016860 
0.930897 0.362758 -0.017769 
0.959079 0.274423 -0.018382 
0.979157 0.183684 -0.019102 
0.991640 0.091943 -0.019011 
0.991426 -0.000065 0.081573 
0.975359 0.000221 0.181905 
0.949589 0.000004 0.280047 
0.913965 -0.000631 0.374900 
0.869472 -0.000830 0.465345 
0.814772 -0.000534 0.551408 
0.753701 -0.000391 0.632434 
0.684180 -0.000843 0.705909 
0.608320 -0.000361 0.774109 
0.525495 -0.000643 0.832639 
0.438515 -0.000693 0.883955 
0.348405 -0.000844 0.927178 
0.253977 -0.000578 0.959599 
0.157585 -0.000879 0.983068 
0.059624 -0.000467 0.997051 
-0.037397 0.098024 0.995611 
-0.033138 0.195130 0.980798 
-0.026666 0.290467 0.956980 
-0.020101 0.383224 0.924102 
-0.011932 0.472172 0.882274 
-0.002765 0.556626 0.831677 
0.007059 0.635419 0.772721 
0.016631 0.708459 0.706422 
0.025986 0.774282 0.633455 
0.034716 0.832792 0.554485 
0.042955 0.883180 0.469810 
0.050353 0.924721 0.380984 
0.056270 0.957477 0.288555 
0.060467 0.980970 0.193094 
0.061974 0.995684 0.095522 
-0.136081 0.000169 0.994439 
-0.232441 -0.000009 0.978838 
-0.326487 -0.000189 0.954339 
-0.416390 0.000443 0.921841 
-0.502078 0.000355 0.880314 
-0.582596 0.000757 0.830224 
-0.657371 0.000030 0.772574 
-0.725898 0.000609 0.707552 
-0.788566 0.001280 0.636663 
-0.843425 0.001557 0.559721 
-0.890998 0.001740 0.477893 
-0.929529 0.002067 0.391068 
-0.960768 0.002427 0.301665 
-0.982213 0.002746 0.209523 
-0.995060 0.002230 0.116061 
-0.037515 -0.098060 0.996343 
-0.033917 -0.195762 0.981973 
-0.028994 -0.291110 0.958164 
-0.020992 -0.383041 0.924240 
-0.012030 -0.472677 0.882302 
-0.002079 -0.556753 0.831705 
0.008834 -0.635505 0.773148 
0.019017 -0.708070 0.706808 
0.028515 -0.774600 0.634390 
0.037809 -0.833440 0.555507 
0.046459 -0.884347 0.471067 
0.053883 -0.926333 0.382599 
0.059437 -0.959275 0.290176 
0.063458 -0.982931 0.195304 
0.065265 -0.997301 0.097921 
0.771984 0.425744 0.454217 
0.319567 0.363742 0.864712 
0.381736 0.846902 0.369715 
0.892140 0.305662 0.306501 
0.932688 0.252936 0.227502 
0.952143 0.194430 0.201712 
0.970476 0.184749 0.118025 
0.554983 0.768058 0.314209 
0.501124 0.307964 0.793344 
0.291667 0.666888 0.677688 
0.744507 0.602315 0.279339 
0.712295 0.273259 0.627395 
0.777567 0.602266 0.178271 
0.746063 0.174920 0.620472 
0.204931 0.525834 0.818870 
0.242977 0.809151 0.531337 
0.851421 0.480109 0.200852 
0.818252 0.196367 0.513618 
0.119645 0.413516 0.898673 
0.182288 0.891314 0.414942 
0.429810 0.735541 0.515038 
0.399137 0.502963 0.754311 
0.472997 0.871719 0.145989 
0.394323 0.147960 0.895179 
0.899595 0.407060 0.142211 
0.883320 0.167326 0.411584 
0.068729 0.342843 0.935944 
0.143644 0.929407 0.341611 
0.338963 0.937627 0.106084 
0.248017 0.109533 0.954642 
0.940204 0.324889 0.071957 
0.923811 0.087519 0.341422 
0.573220 0.562152 0.581829 
0.057745 0.278227 0.957166 
0.141206 0.951155 0.276705 
0.282978 0.958281 0.079776 
0.189066 0.083301 0.972994 
0.960493 0.102940 0.220520 
0.962759 0.251144 0.055317 
0.982075 0.090875 0.123387 
0.647483 0.409335 0.626616 
0.668115 0.601381 0.422842 
0.549179 0.695359 0.453083 
0.518396 0.440099 0.719427 
0.777005 0.523602 0.336747 
0.752773 0.330131 0.549408 
0.710014 0.479823 0.499040 
0.396226 0.630715 0.657193 
0.297855 0.179606 0.928228 
0.381900 0.909445 0.179417 
0.437656 0.859635 0.266700 
0.366791 0.263297 0.880588 
0.355955 0.709333 0.600669 
0.339188 0.588617 0.724109 
0.499158 0.751003 0.424388 
0.457671 0.413760 0.774361 
0.262409 0.458006 0.842089 
0.311021 0.827411 0.464287 
0.519935 0.821111 0.238150 
0.453740 0.235705 0.846069 
0.301521 0.522689 0.788510 
0.334844 0.773541 0.532076 
0.213397 0.399826 0.885910 
0.274832 0.871873 0.403689 
0.852536 0.412752 0.303089 
0.855650 0.256606 0.423390 
0.411447 0.335786 0.834392 
0.470393 0.812085 0.342627 
0.407554 0.796586 0.440619 
0.360699 0.431199 0.815499 
0.103127 0.568437 0.813527 
0.135928 0.808616 0.570828 
0.233335 0.747762 0.615429 
0.214503 0.608807 0.757143 
0.067326 0.486194 0.869338 
0.118233 0.865586 0.486775 
0.631078 0.289162 0.703042 
0.671421 0.675576 0.295551 
0.545225 0.839473 0.064260 
0.469707 0.070238 0.865354 
0.231300 0.908007 0.348978 
0.159685 0.347411 0.919819 
0.277010 0.944715 0.183703 
0.187232 0.184860 0.958132 
0.451305 0.661371 0.588448 
0.424200 0.558865 0.699937 
0.239944 0.288437 0.920051 
0.315936 0.904036 0.290519 
0.923466 0.190986 0.301391 
0.919950 0.330230 0.183997 
0.162412 0.478459 0.857636 
0.211620 0.849330 0.481988 
0.474751 0.882847 0.047895 
0.391557 0.054679 0.905818 
0.409496 0.912555 0.077013 
0.322043 0.081694 0.933326 
0.044340 0.420734 0.905273 
0.107541 0.901710 0.419986 
0.169978 0.967542 0.194311 
0.077315 0.195520 0.974825 
0.130074 0.273861 0.948899 
0.212706 0.938296 0.273714 
0.612728 0.479315 0.613524 
0.625516 0.590229 0.495946 
0.565985 0.635791 0.511419 
0.549322 0.495482 0.658786 
0.732587 0.405209 0.529400 
0.750162 0.498986 0.417887 
0.648887 0.519794 0.539937 
0.596482 0.771791 0.221783 
0.537369 0.219761 0.799252 
0.821530 0.480130 0.294854 
0.803907 0.293420 0.494284 
0.687659 0.547531 0.460027 
0.676958 0.444468 0.571030 
0.778489 0.361553 0.492127 
0.698418 0.366515 0.595721 
0.720063 0.571881 0.378138 
0.502509 0.686615 0.514409 
0.479011 0.499935 0.707846 
0.830891 0.354535 0.404097 
0.803193 0.452167 0.370856 
0.890856 0.226945 0.365105 
0.952383 0.250578 0.141680 
0.597981 0.706542 0.369010 
0.558128 0.359067 0.732625 
0.638148 0.352267 0.666918 
0.669437 0.640764 0.362991 
0.520471 0.624045 0.570272 
0.486816 0.579524 0.641832 
0.190175 0.687943 0.694731 
0.614292 0.647000 0.438456 
0.588796 0.424485 0.672072 
0.106891 0.660617 0.740432 
0.117943 0.735815 0.664609 
0.712480 0.667027 0.213536 
0.668119 0.211960 0.694348 
0.990287 0.077520 0.046018 
0.506964 0.146609 0.833401 
0.576483 0.807098 0.144882 
0.724059 0.080418 0.662335 
0.768967 0.637719 0.073519 
0.773219 0.254172 0.559682 
0.800917 0.541149 0.247984 
0.823173 0.560061 0.098619 
0.785991 0.089735 0.585464 
0.101128 0.089208 0.987710 
0.198242 0.978616 0.086275 
0.889352 0.072062 0.422473 
0.909406 0.409135 0.058134 
0.874705 0.477331 0.077418 
0.847865 0.088601 0.496904 
0.885730 0.392514 0.228988 
0.590353 0.252521 0.749714 
0.640577 0.722435 0.256567 
0.121878 0.992945 0.057206 
0.022307 0.059964 0.997606 
0.025638 0.127366 0.990503 
0.123003 0.986555 0.125651 
0.703800 0.710609 0.063364 
0.648234 0.071161 0.737924 
0.628392 0.778040 0.064547 
0.563013 0.071793 0.806230 
0.739322 0.662199 0.129585 
0.691446 0.133083 0.689223 
0.660091 0.736180 0.156511 
0.603054 0.157896 0.764102 
0.815028 0.548257 0.182323 
-0.451737 0.474991 0.768215 
-0.327358 0.885845 0.340602 
-0.857191 0.396993 0.347695 
-0.351772 0.329952 0.886430 
-0.277463 0.284765 0.925757 
-0.244548 0.209909 0.953222 
-0.195772 0.135303 0.976477 
-0.287225 0.810428 0.519896 
-0.795007 0.340201 0.523857 
-0.649853 0.710151 0.284770 
-0.277232 0.642492 0.723028 
-0.643185 0.301869 0.722927 
-0.176669 0.631890 0.760898 
-0.658565 0.199697 0.745240 
-0.489550 0.847967 0.215213 
-0.799639 0.563292 0.220641 
-0.212042 0.527921 0.829256 
-0.519366 0.227968 0.838673 
-0.364985 0.922573 0.140466 
-0.884630 0.443179 0.150657 
-0.741810 0.545267 0.409589 
-0.484063 0.781517 0.406171 
-0.107251 0.902389 0.422897 
-0.897657 0.165821 0.430997 
-0.175533 0.446242 0.883822 
-0.450048 0.167660 0.890444 
-0.288195 0.954756 0.094780 
-0.924694 0.366648 0.108270 
-0.056036 0.959740 0.281818 
-0.954423 0.122305 0.294308 
-0.383943 0.095369 0.930451 
-0.113140 0.356149 0.930686 
-0.571002 0.608430 0.566802 
-0.221226 0.972985 0.087486 
-0.949511 0.298924 0.102625 
-0.026242 0.976467 0.223828 
-0.971727 0.093832 0.238476 
-0.268567 0.111060 0.964870 
-0.138342 0.226568 0.968877 
-0.194117 0.060760 0.984868 
-0.415316 0.646927 0.652123 
-0.629176 0.448928 0.652680 
-0.431130 0.741785 0.526224 
-0.713293 0.481181 0.528485 
-0.560561 0.360080 0.762459 
-0.344582 0.567044 0.758019 
-0.501037 0.521502 0.704980 
-0.622731 0.688000 0.389736 
-0.132702 0.938124 0.328459 
-0.927627 0.199728 0.338547 
-0.225738 0.895379 0.391941 
-0.879484 0.290891 0.399303 
-0.569818 0.754239 0.339802 
[...]
POINT_DATA 2044
SCALARS u float 1
LOOKUP_TABLE default
2.157875
6.466533
2.271673
6.829686
4.078174
2.147037
2.362023
2.756965
3.078594
3.428839
3.902357
4.336200
4.748988
5.151354
5.535838
5.909049
6.171768
6.446389
6.627429
6.750633
6.801838
6.739364
6.620928
6.386835
6.097021
5.757501
5.338561
4.898212
4.441922
3.958753
3.470362
3.023191
2.677691
2.435329
2.214972
2.404312
2.669130
3.005098
3.374354
3.771195
4.200942
4.617052
5.008507
5.372566
5.667216
5.909673
6.134076
6.304293
6.441313
6.471849
6.397884
6.294549
6.132877
5.889068
5.649810
5.328569
4.960627
4.576738
4.128480
3.704785
3.289411
2.917193
2.575799
2.357530
2.142129
1.782609
1.506971
1.331997
1.333668
1.465443
1.819476
2.051493
2.427795
2.758106
3.181470
3.482361
3.640402
3.847719
3.971958
4.062506
3.952338
3.502027
2.818151
2.125192
1.264149
0.313527
0.754424
1.764845
2.751222
3.673189
4.544543
5.325026
5.949644
6.393656
6.554867
4.023395
3.952593
3.835777
3.568967
3.247050
2.860244
2.428691
1.987427
1.666807
1.347541
1.193881
1.090500
1.294579
1.559879
1.921448
3.966482
3.587259
3.068071
2.219056
1.279167
0.254023
0.941059
2.012492
3.018089
4.001073
4.916532
5.700256
6.286144
6.710068
6.900785
2.234838
2.279382
4.910307
2.032160
1.980939
1.850478
1.982921
4.608806
2.336721
1.995629
3.653676
1.810600
3.915477
1.794880
0.981004
3.707315
3.187137
1.776700
1.814007
4.927479
3.459480
1.623916
5.741393
3.169465
2.896564
1.557380
2.420106
5.540260
6.190193
3.683134
2.655252
1.465587
2.438274
2.903805
5.954963
6.304228
3.801005
1.609856
2.390415
1.756194
1.968124
3.241790
3.581340
1.894999
3.037569
1.837475
2.412180
2.119723
3.290465
5.959373
5.383114
2.744794
2.773466
1.535710
4.022543
1.907762
1.509416
4.263150
5.198506
2.675241
1.310129
3.524524
1.953757
4.885229
2.522137
1.837545
2.365636
4.811093
4.220678
1.841162
0.439956
3.406556
2.767405
1.096462
1.117859
4.315663
1.994580
4.092195
5.566149
3.153522
5.380941
2.372588
6.184556
3.488261
2.682474
1.790039
2.730200
5.613379
1.713450
2.403541
1.231785
4.255137
5.822548
3.509086
6.016593
3.622915
1.751514
4.951248
6.324770
3.527000
2.969705
5.885030
2.092009
2.895301
3.022361
2.017128
2.024489
2.697011
2.447246
4.953952
2.430911
2.915121
1.826108
2.866280
2.051645
1.988405
1.958458
3.210397
3.236112
1.837192
2.169140
2.547404
1.752741
2.152371
3.984465
2.056332
2.013427
3.638148
2.670652
2.112197
1.843478
3.400997
2.014264
1.217640
2.274574
4.258613
1.993988
1.972348
2.875564
5.352008
2.011827
4.303827
1.688956
3.377575
3.786394
1.838685
3.899725
6.441054
1.449173
3.044493
3.371069
1.502784
2.596486
2.207492
4.515976
6.499061
4.047096
3.825121
6.485894
4.757650
2.378325
5.181416
2.755194
4.387484
2.058166
4.850969
2.386664
3.600478
1.826253
5.466539
2.703661
2.382157
2.720985
3.195695
3.702252
4.017381
2.149442
4.571085
1.772517
2.245666
1.236635
2.260008
5.623995
3.909557
1.064033
2.665508
6.156418
3.406525
3.270807
4.573618
5.069991
1.550050
1.604348
3.058258
6.322742
3.119288
6.006689
1.623760
3.548144
2.313985
2.952905
6.427429
2.838838
6.287561
1.691233
3.741136
3.244866
3.969331
2.494967
2.280303
3.683248
2.654270
2.197046
1.593119
2.083312
4.114658
5.709575
1.863823
5.252848
2.116624
4.687054
3.952963
4.298324
2.708362
5.567710
3.362060
4.541717
1.877914
3.664441
5.174506
3.138165
5.912832
1.696196
2.293914
2.410126
4.837812
3.008183
5.060409
4.279612
5.681683
4.397497
5.234346
5.991536
3.854437
1.981423
2.631741
4.333742
1.298278
6.185517
2.965927
6.282616
2.090623
3.559129
4.197276
2.512348
5.969630
3.083962
3.706950
5.896308
5.008337
1.226375
5.543285
1.349174
3.530108
6.170050
6.515320
2.422760
2.663987
6.364172
2.760734
2.531248
2.847817
3.296823
1.863657
2.023322
2.437209
3.701788
1.777604
2.267739
1.386557
2.227853
2.265850
1.627570
2.006081
2.178803
2.215300
3.913926
3.066086
1.830490
2.001881
2.824572
3.411897
2.255099
2.569074
2.250252
3.241100
3.633179
4.928366
2.464081
3.056311
4.833915
5.237199
1.908538
2.193434
1.584278
3.999154
1.347373
2.308320
1.272500
2.485904
2.583209
0.569647
6.537580
1.950518
3.312728
1.590612
0.912783
3.002125
1.853992
3.077701
2.140602
6.551784
2.310357
6.553501
2.685982
2.319201
1.798585
3.353357
1.573860
2.688451
1.823051
2.065201
1.748051
2.936014
3.858620
4.002162
1.869879
2.345387
5.589440
2.481924
2.983872
3.346959
1.885341
4.237950
4.530456
2.126077
1.901286
2.198750
1.582340
3.640404
5.603394
2.564736
1.318902
3.065514
6.331818
4.624301
3.070983
1.231431
5.340062
2.973846
1.780291
2.784315
6.583937
1.341089
6.309795
2.467092
3.443371
2.938760
2.534674
6.709384
1.464124
6.577416
3.006501
3.570001
2.201481
2.525099
2.432502
3.770124
1.573957
2.177016
2.013290
3.961054
1.474598
5.972573
1.771245
5.450614
3.819615
4.682807
2.391218
4.421710
3.083539
5.623077
1.575088
4.751166
5.183243
3.439374
6.045183
2.812464
2.610332
1.751224
4.965272
2.069815
5.113738
2.709330
5.693289
4.065109
5.206117
4.204178
3.552879
6.141511
2.794789
1.892610
1.059730
4.652540
2.618597
6.347252
1.763659
6.510250
3.978530
3.388390
6.174431
2.131767
2.629570
3.206488
5.957946
3.396702
1.054027
5.357668
1.124853
5.892970
6.378807
3.176482
2.139432
6.810382
6.569403
2.321205
2.460264
2.767813
3.348420
2.683638
1.984710
1.826451
2.368874
1.511719
3.937659
1.455272
2.306165
2.212833
2.106815
2.041110
2.108263
2.017105
2.868488
3.935762
2.046860
1.685470
2.064646
3.551844
2.133552
2.669366
2.885019
3.478877
3.340044
4.832306
3.136447
2.340145
5.221373
4.702237
2.386532
1.846426
4.291338
1.307546
2.176836
1.330464
2.318737
1.339033
0.940284
2.513470
1.783290
6.878602
1.686996
3.242384
2.990422
0.898609
3.281379
1.732066
6.891038
2.039827
6.873726
2.097822
1.929755
1.784539
2.512539
3.625014
1.361357
0.551072
1.943907
2.015876
3.186366
1.575984
3.864242
3.566256
3.955114
3.714655
2.448299
5.339465
2.140980
2.163417
1.959545
1.908815
1.835130
1.902589
4.941851
2.195483
2.232763
3.963718
1.978794
4.116104
1.997473
4.086258
0.960459
3.460372
1.610141
5.323682
1.915128
1.557483
3.826613
6.075667
3.232560
1.540717
2.986384
5.944343
2.589744
6.509945
3.671741
2.833608
1.369807
2.506735
6.329460
3.101564
6.666810
3.802463
2.323635
1.500884
3.412524
1.917669
3.877178
1.776366
1.952768
3.292564
2.461372
2.423911
6.282817
3.351611
5.703072
2.750221
3.108760
1.602418
4.429767
1.768165
4.703779
1.536084
5.498105
2.721824
1.293693
3.904565
1.987013
5.299230
2.834664
1.943666
2.195452
5.174052
1.672218
4.669023
0.390720
3.747645
1.194569
3.104771
4.675872
1.086610
2.043436
4.338129
5.850503
3.231959
5.786715
2.463071
6.523308
3.496944
1.943699
3.134464
2.803120
5.987583
1.674639
2.410030
1.263358
4.655532
6.136035
3.463682
6.351049
3.609809
1.847080
5.351464
6.613919
3.564361
3.069965
6.276112
3.019027
2.106317
1.957964
3.202852
2.893390
2.142388
2.499840
5.218152
2.566552
1.890074
3.082783
2.116108
2.933712
2.825570
3.421637
1.905354
3.480593
1.768819
2.416227
2.061084
4.324918
1.901160
3.917003
1.860106
2.611674
2.127199
2.674137
2.139633
1.881759
3.624098
1.516540
2.582451
2.157620
4.491056
2.884249
5.632170
4.527841
2.080476
3.589928
1.758100
1.757223
4.063723
6.808754
3.953035
1.431584
3.219986
3.555754
1.668399
2.248710
4.771138
4.008076
6.878555
3.894659
6.830130
1.724894
4.996692
2.539812
5.447719
2.895478
1.945061
4.616754
2.163996
2.510184
5.102896
2.215454
1.538787
2.486267
1.232718
2.336423
2.283072
1.142475
1.835849
1.976589
1.966593
2.040118
3.318607
2.518277
2.108403
1.457158
2.242490
2.246439
2.946998
2.050833
2.200664
3.771990
2.421718
3.539118
1.418406
3.853678
2.263959
2.286170
4.490200
3.861627
3.402065
1.554068
0.832891
2.352442
2.858163
2.786772
4.215815
3.285199
3.508470
1.188037
1.782875
2.258073
1.245632
0.988936
2.066623
2.344531
1.995625
4.263452
2.202193
4.804754
2.623268
2.433777
2.169492
2.148562
2.624657
4.773635
5.245229
5.010411
3.293753
1.222400
2.419385
2.695544
2.267606
2.449248
2.289132
2.044781
2.264881
3.780100
2.005795
2.338969
2.452886
2.104815
2.317894
2.559815
5.069017
3.321693
4.700278
2.939978
2.759099
2.194240
1.949396
4.358353
1.644330
1.958205
2.417734
1.003620
2.153839
2.282930
2.087892
2.669287
0.325680
1.059185
2.878082
2.453928
1.608744
4.444914
5.154701
3.591285
4.350068
2.911288
2.092937
2.231091
1.716159
0.206909
2.347751
1.427487
2.358328
2.207960
1.940359
2.278205
5.314011
1.959086
5.251343
5.750118
2.626462
2.946229
2.167748
4.166219
5.188972
2.518300
2.216807
3.232060
0.682736
1.994231
1.521836
1.719994
2.247148
2.528551
3.639547
2.103879
3.216307
2.282507
2.613115
2.107658
2.037914
5.669063
5.455779
2.664087
2.880989
1.447324
0.672369
3.594262
3.661737
2.361608
5.227645
3.270183
4.568508
4.322634
2.719692
2.437188
3.260569
1.397026
1.505748
2.323674
2.224933
2.062649
2.186778
2.228979
1.826237
2.403451
1.643921
2.271150
2.218398
2.040753
4.084429
3.983323
1.088023
3.571397
4.982265
1.229711
3.912258
2.380367
1.979235
1.666911
2.256737
1.688157
2.446180
2.343721
2.064332
1.952685
0.655614
2.200988
3.289347
2.503957
2.203732
2.786731
2.239607
2.205120
5.999028
5.882398
2.441025
2.251444
2.683194
4.270966
2.665379
5.117921
2.415382
4.641172
2.363052
3.437292
2.880498
2.348146
2.322538
4.530168
3.946959
5.491518
1.091711
2.334095
2.425972
1.323382
2.248149
5.311445
2.230138
5.777736
3.001041
2.684090
4.652468
4.422967
2.955463
3.993946
5.612605
5.000704
2.242446
2.330772
2.343284
3.750660
3.031240
2.078204
4.979629
5.033566
2.314651
1.640394
2.423071
2.246677
3.688335
2.232383
2.421257
2.138841
2.062275
2.367199
6.139218
5.895847
1.785898
3.692568
2.396088
4.287042
2.616977
1.964361
5.737045
1.803615
2.186045
5.910961
5.421216
3.754445
2.316322
1.808719
1.390366
2.431150
4.494974
1.638573
3.495918
1.468734
3.169464
2.159854
2.388589
3.419955
1.843722
2.524440
2.189729
2.160405
0.817229
2.297625
0.851379
1.879152
4.469905
2.163601
2.488621
5.095784
3.775516
4.219428
4.753126
2.290248
3.478406
4.118500
2.769156
4.806329
1.703981
3.013171
2.337512
2.349062
5.622614
2.306811
2.270668
2.811853
0.314255
2.850512
2.229919
2.379027
1.457563
2.186398
2.608777
3.975184
5.059047
3.024223
2.309879
1.360904
1.709605
2.241360
5.775995
3.105602
2.020388
1.757615
2.333727
0.615342
2.298799
1.772634
1.793612
2.375068
2.399701
1.306046
2.424240
2.223815
4.446079
2.591296
3.949443
3.998073
1.945513
2.288303
2.977191
3.834955
1.857703
2.228729
2.322272
4.183938
3.129621
1.802519
3.145001
4.780612
2.894553
2.410693
2.043287
2.320854
2.305070
3.244725
1.837611
2.474493
2.761556
2.058078
1.864363
2.017442
5.000662
1.945655
3.019494
1.038386
4.474563
2.918621
2.484559
2.107956
0.961940
2.204542
1.713369
3.147558
3.471400
3.901632
3.987555
0.345711
1.248154
2.281562
1.894759
2.333560
0.653840
2.112892
2.463825
3.329875
0.833021
4.534362
3.969700
2.221592
2.165545
1.925501
5.722774
2.537424
3.984019
2.297179
2.150248
4.555449
3.260348
2.436944
2.249157
3.816310
2.601386
1.091605
3.234489
3.520237
1.319366
2.067288
1.924976
2.099265
2.076879
5.986037
1.685328
2.381872
2.516034
0.873862
2.668540
2.249549
2.557926
2.620057
2.395881
4.758209
4.208394
2.407806
2.330625
2.247813
0.712446
1.384817
1.767840
1.806808
1.635042
1.748134
1.692159
1.573801
1.858265
2.219545
2.247517
2.529439
2.366242
1.934862
2.057340
2.343183
1.530038
1.848947
3.570679
2.535979
3.132366
3.610380
3.651212
2.787870
3.697067
3.563726
3.260442
3.564357
2.875057
3.253296
3.448800
2.766885
3.069828
3.188251
2.654195
2.150292
2.049359
3.881918
3.772142
3.457283
3.116564
3.236842
2.623974
2.571889
0.934974
2.342163
2.744342
2.517005
3.316878
2.060633
2.653586
0.285957
1.099540
1.224276
2.022128
1.886194
1.992936
2.406620
1.986514
1.819965
3.759494
1.905326
3.332420
1.067762
2.114844
2.958188
1.310702
0.860873
0.525507
0.735380
2.790389
1.748850
4.493008
5.226862
4.608998
3.770456
2.806298
2.950664
2.745334
2.647242
4.557352
5.115771
4.824505
2.699612
2.064063
1.723324
1.936060
2.365046
1.543965
3.320807
2.342323
0.529812
1.383113
2.220617
2.932885
1.707372
1.986750
2.062694
2.295946
2.091724
2.669864
1.604340
2.050237
1.580934
1.629782
2.206559
2.820402
2.050725
3.009590
1.711224
2.921726
2.851734
3.548277
2.805021
3.438249
2.218662
2.742582
2.316909
2.294505
1.685467
2.359570
1.586922
1.463687
5.773128
1.980631
1.852333
1.776861
0.701173
3.359738
3.573207
3.456462
3.839573
2.606888
3.711562
2.902965
2.539981
1.759862
1.870764
1.991754
2.134647
2.073758
1.715951
2.046652
2.298040
1.881275
2.166460
2.352958
4.545012
2.994163
1.897906
1.385517
2.186740
1.875541
1.822659
2.791102
1.690391
1.082026
3.200888
2.979600
2.040111
2.238949
2.490018
4.578529
1.737402
1.753570
1.723166
1.671374
1.662195
2.314843
3.570158
3.677415
4.776631
0.500685
3.376176
2.136706
2.528572
2.144693
2.117016
2.549695
1.746298
1.812552
1.878217
1.748429
1.863661
1.828955
1.761765
2.022743
3.230745
3.897007
3.724639
2.378246
2.752024
3.635469
3.475601
3.643732
1.924464
3.857085
3.382820
4.284240
4.202460
2.920202
1.080898
2.378196
2.132839
2.197862
1.706605
1.999626
1.659860
1.752836
0.527194
2.172443
2.235521
4.592735
0.352038
2.543596
0.353647
1.238614
0.975506
1.196349
0.482906
2.318526
1.897980
1.891989
1.507322
0.962566
1.259339
3.227572
4.310006
3.372220
1.864460
4.645620
2.633770
1.770787
3.658622
2.690302
2.679826
1.742729
3.343452
3.084384
0.993422
1.822350
1.094162
3.061078
1.881131
0.933022
1.058369
0.908183
3.354337
2.071598
3.090013
2.617724
1.939892
1.790821
1.661958
1.458391
1.753595
1.978442
2.492522
2.094490
2.382253
3.504365
2.485768
2.999804
3.902296
5.824454
5.816467
4.902780
5.861123
4.887355
5.732942
5.917015
5.730055
3.779554
3.835787
3.440728
3.399241
3.786869
3.887367
3.910957
2.308567
2.155298
2.019008
1.867324
1.908438
1.769726
1.747666
1.787311
1.587144
2.406916
2.543500
2.357320
2.300109
5.096733
4.328824
5.227929
4.491815
3.632564
3.060934
4.627165
1.773382
2.588951
3.913430
4.496591
3.370939
4.632834
1.679608
1.888969
1.475776
1.487472
1.783598
1.915532
2.429286
1.891213
2.146665
2.173772
1.954732
2.865467
2.764271
2.496692
3.323591
3.187264
1.838354
2.981539
0.561012
1.753390
2.557295
2.131104
1.061427
0.832146
3.753481
1.524932
2.363331
1.082630
0.969590
1.621404
2.471718
2.274891
1.675276
2.481042
2.636932
1.573934
1.582469
3.162622
1.633860
1.628109
1.161662
1.249723
2.491447
2.743990
1.618861
1.484210
1.911847
1.732256
1.860806
2.396913
1.445645
2.043326
2.242834
1.643750
1.802710
1.659391
0.729754
0.804060
0.114960
1.429600
1.896816
2.681856
3.326027
2.987335
2.870170
1.739274
1.858889
1.632432
1.785817
2.059132
2.244130
0.581014
0.575366
2.860215
2.131954
2.631853
4.997067
2.881672
1.902150
1.705523
1.814967
2.072929
2.045988
3.377366
2.226974
3.172626
3.530664
4.035666
3.646178
1.822648
1.955671
1.842104
1.863579
1.404421
2.210591
0.735463
1.844195
0.797893
1.067634
0.269211
0.656107
1.945925
2.352396
2.096269
1.738960
1.978970
3.556059
1.537108
1.417507
1.901706
1.690871
2.048463
1.904432
2.035317
2.135927
2.097865
2.121124
2.019201
2.075551
2.366414
1.017117
2.004537
1.905084
1.926520
3.868876
1.878834
2.118038
1.887451
2.053431
2.721817
1.992383
1.933771
4.056765
4.260082
3.227490
3.081308
1.676714
1.773436
1.691308
3.239449
1.879865
4.924218
1.971098
1.949346
3.099124
0.330851
0.947109
0.372509
2.155929
1.770790
1.655505
4.944479
1.187027
1.900798
1.889946
1.850505
2.071595
1.040266
1.146493
2.305549
2.173745
1.979704
1.970862
2.027906
0.964132
4.418969
2.132047
2.146191
2.369071
2.180114
3.745069
1.842218
1.748170
1.732713
2.465931
1.822996
1.777063
1.354945
1.345275
2.352481
3.040300
2.254513
2.855903
2.119454
2.498807
3.024733
3.266412
1.809066
1.776366
2.268679
2.186812
2.747318
3.284147
2.920017
4.261250
3.409554
3.642606
3.196224
2.601135
3.279023
3.513634
2.765042
2.197777
1.892684
2.120839
1.435066
1.601269
1.590489
1.918979
1.380615
1.140510
0.850048
2.793451
1.252625
2.985508
2.039450
1.907600
1.673383
1.881396
1.979715
1.315638
1.461145
1.530784
1.664853
0.604623
1.064860
0.943521
1.213857
1.452599
1.828171
3.027727
1.582352
1.578663
1.788045
1.988904
2.301530
1.628980
1.866631
2.134908
1.835508
1.850073
0.934146
3.008988
3.114352
1.968316
1.942869
2.133531
3.997123
5.024204
4.126866
4.022916
2.561729
3.400960
2.414492
1.809882
1.615441
2.167474
4.367058
2.094793
2.191816
2.022548
1.965219
2.002334
3.830086
3.389704
3.884851
3.916895
3.791494
1.930299
2.155234
1.047018
0.516534
1.936099
2.000045
2.176590
2.221499
3.625070
4.290638
4.165626
3.307591
1.907079
1.864678
3.990433
2.052859
2.414373
1.603346
4.008221
2.105460
2.141980
4.946222
1.300164
1.623402
2.610616
3.200988
2.492611
2.020522
1.988363
2.036553
2.049350
2.114564
5.129165
5.012607
1.992764
1.936459
2.649947
1.882816
1.832944
2.997023
3.059826
1.649258
2.338128
1.869172
1.768798
2.252380
2.232663
2.447184
1.584065
1.502871
1.488346
2.892268
2.751985
2.070267
2.379907
2.222058
2.302351
4.048479
2.892436
3.020561
1.991994
2.091108
2.534278
2.793046
2.248010
2.356207
1.253188
1.506808
3.783197
1.953717
2.235188
1.995686
2.169978
1.886980
3.957734
3.830032
1.611137
4.316157
4.184091
1.700556
1.759747
1.760363
1.799659
1.604105
1.612167
1.780404
1.799669
2.170619
2.241787
1.964777
1.979046
2.071648
1.917848
0.421373
1.029522
2.168507
2.433221
2.041912
1.781402
1.743324
4.132172
1.852397
4.086056
4.244330
3.900034
2.833717
2.146747
1.880854
2.091524
1.236113
1.977173
1.281290
0.813768
0.943407
0.398032
2.247025
2.004604
2.099072
1.908458
2.162157
2.086347
1.846841
1.629368
1.947909
0.825604
5.013631
4.886326
3.499168
1.607607
4.921911
3.087801
2.330243
2.619803
4.952946
4.040793
1.847275
1.901087
4.932695
1.935033
1.862648
2.534149
1.305032
1.344507
1.908500
1.773005
4.784066
3.399905
1.902182
1.506384
1.616905
2.077551
0.926069
0.862168
2.433234
2.055560
2.209240
1.840610
1.892231
3.230754
1.451560
1.703748
0.952926
1.157531
0.969849
2.082736
4.181662
2.920841
2.864554
1.708611
1.711695
2.585400
2.648307
2.526039
2.079590
2.934766
2.377753
2.160590
2.192652
2.146960
2.765702
2.476851
2.434702
2.128932
2.545785
2.294917
2.526660
2.225872
2.119323
2.078120
2.307891
2.168966
2.204998
2.891228
3.042515
2.990107
2.940808
2.480538
2.975545
3.132602
2.963171
2.782780
2.886603
2.307678
2.330548
2.381884
2.262230
2.042449
2.274307
2.096102
2.695998
2.690310
2.351689
1.834933
1.916970
1.793414
2.446592
0.598554
0.379360
0.926447
1.267360
1.945967
2.026245
1.971678
1.930724
2.043724
1.808930
2.468102
2.475326
1.881481
1.812069
1.978762
1.909073
1.928202
0.290130
0.553403
0.407299
0.679565
2.835992
2.628533
1.355746
0.717192
1.044087
0.733246
1.638664
2.059650
1.691276
1.939580
1.978657
1.416354
2.151022
1.453736
1.208202
1.219861
1.468179
1.527928
1.768107
1.843421
2.261122
1.805715
1.536179
1.420052
1.743299
1.745427
