# vtk DataFile Version 2.0
Unstructured Grid Example
ASCII
DATASET UNSTRUCTURED_GRID
POINTS 2044 float
1.023631 -0.002057 0.102134 
-0.313851 0.999908 0.015060 
-0.997228 -0.012417 -0.109646 
-0.331702 -0.989869 0.000924 
0.198112 -0.000177 0.995595 
1.010156 -0.127155 0.099049 
0.981798 -0.253696 0.098676 
0.946640 -0.376077 0.102369 
0.886614 -0.490025 0.097296 
0.820290 -0.595406 0.092639 
0.737015 -0.693068 0.090152 
0.644014 -0.778098 0.084277 
0.542661 -0.850213 0.075674 
0.436887 -0.911759 0.066287 
0.326218 -0.960737 0.055161 
0.212034 -0.996346 0.045588 
0.099920 -1.017223 0.035582 
-0.014252 -1.026165 0.024095 
-0.123196 -1.026536 0.017452 
-0.229521 -1.010409 0.009081 
-0.426281 -0.957108 -0.005150 
-0.515568 -0.914905 -0.013799 
-0.599786 -0.871534 -0.020375 
-0.672835 -0.817047 -0.026637 
-0.738931 -0.759714 -0.035491 
-0.798151 -0.698888 -0.042922 
-0.846106 -0.632192 -0.051364 
-0.887445 -0.565211 -0.063175 
-0.920608 -0.495358 -0.073954 
-0.947737 -0.423653 -0.077983 
-0.967199 -0.354717 -0.086883 
-0.980189 -0.284485 -0.093624 
-0.989174 -0.214653 -0.100845 
-0.996426 -0.146033 -0.106545 
-1.001268 -0.079744 -0.105890 
-0.998952 0.054365 -0.108300 
-0.994597 0.120946 -0.105511 
-0.990205 0.191069 -0.101840 
-0.981747 0.262387 -0.095203 
-0.964875 0.334103 -0.088587 
-0.938506 0.404213 -0.085450 
-0.911373 0.475844 -0.077774 
-0.876790 0.545629 -0.066028 
-0.833948 0.615811 -0.060139 
-0.782546 0.684449 -0.051936 
-0.724828 0.752269 -0.037692 
-0.658206 0.812632 -0.023452 
-0.583997 0.871392 -0.015874 
-0.502072 0.919961 -0.004836 
-0.410740 0.962275 0.003626 
-0.210404 1.026010 0.023884 
-0.103818 1.037941 0.030575 
0.005462 1.035393 0.039058 
0.119095 1.023269 0.050265 
0.229129 0.999322 0.053747 
0.341307 0.963385 0.061058 
0.451387 0.913796 0.069199 
0.553832 0.850364 0.073757 
0.648859 0.772155 0.076489 
0.742014 0.688213 0.082522 
0.820104 0.590688 0.086575 
0.887844 0.485000 0.091243 
0.945960 0.371736 0.094393 
0.989149 0.253664 0.098090 
1.013386 0.129210 0.097621 
1.014486 0.000332 0.182457 
1.008651 -0.001133 0.262796 
0.994692 -0.000023 0.342857 
0.974789 0.003238 0.422650 
0.945848 0.004260 0.502471 
0.917212 0.002743 0.576945 
0.872164 0.002008 0.644456 
0.824835 0.004327 0.713260 
0.768280 0.001853 0.767369 
0.710008 0.003300 0.825465 
0.640247 0.003560 0.871478 
0.558707 0.004332 0.906943 
0.476725 0.002968 0.943288 
0.387681 0.004515 0.969062 
0.295169 0.002398 0.985603 
0.192034 0.097982 0.992994 
0.170165 0.194887 0.980722 
0.136932 0.289349 0.956735 
0.103221 0.379905 0.922736 
0.061270 0.467413 0.880110 
0.014196 0.550147 0.830403 
-0.036247 0.629125 0.774496 
-0.085401 0.700162 0.710625 
-0.133437 0.766482 0.639209 
-0.178266 0.824681 0.561141 
-0.220577 0.875457 0.479547 
-0.258563 0.919559 0.391411 
-0.288947 0.954187 0.299164 
-0.310501 0.979838 0.205340 
-0.318237 0.992618 0.110830 
0.097443 -0.000869 0.999012 
-0.003292 0.000045 0.990783 
-0.104384 0.000970 0.970297 
-0.209597 -0.002275 0.934348 
-0.313847 -0.001824 0.890174 
-0.416791 -0.003888 0.837867 
-0.516403 -0.000152 0.775254 
-0.610614 -0.003128 0.704821 
-0.693132 -0.006571 0.622737 
-0.770077 -0.007994 0.534255 
-0.835310 -0.008935 0.438037 
-0.894872 -0.010612 0.339629 
-0.937286 -0.012465 0.231844 
-0.973454 -0.014103 0.120980 
-0.995827 -0.011449 0.005360 
0.192642 -0.097798 0.989238 
0.174166 -0.191639 0.974687 
0.148887 -0.286049 0.950657 
0.107794 -0.380848 0.922030 
0.061776 -0.464824 0.879965 
0.010677 -0.549495 0.830262 
-0.045364 -0.628686 0.772303 
-0.097651 -0.702160 0.708642 
-0.146423 -0.764849 0.634408 
-0.194151 -0.821353 0.555894 
-0.238566 -0.869465 0.473090 
-0.276692 -0.911279 0.383116 
-0.305211 -0.944949 0.290841 
-0.325858 -0.969766 0.193995 
-0.335137 -0.984318 0.098513 
0.751319 0.551216 0.479945 
0.435898 0.426336 0.857032 
0.116660 0.948488 0.395666 
0.893616 0.409793 0.361929 
0.936998 0.344622 0.296784 
0.968005 0.267666 0.278688 
0.976926 0.254690 0.209228 
0.335706 0.916286 0.353350 
0.612277 0.385419 0.786443 
0.205071 0.743191 0.687730 
0.613248 0.763036 0.323263 
0.778657 0.354484 0.634250 
0.633754 0.767420 0.239180 
0.834281 0.228328 0.635391 
0.232707 0.575517 0.820723 
0.037339 0.870632 0.547259 
0.763805 0.629553 0.265842 
0.883864 0.268267 0.547735 
0.221646 0.439589 0.896247 
-0.100029 0.934032 0.432266 
0.267012 0.851954 0.531741 
0.424519 0.593747 0.755567 
0.169600 1.000137 0.196504 
0.573594 0.186384 0.879669 
0.839477 0.543036 0.220774 
0.926405 0.232043 0.457732 
0.208587 0.352082 0.926283 
-0.176101 0.959854 0.358409 
-0.006277 1.029492 0.144942 
0.460732 0.127230 0.942123 
0.908043 0.440474 0.168739 
0.972695 0.128589 0.397658 
0.521284 0.693407 0.592363 
0.226005 0.287082 0.951918 
-0.202567 0.982787 0.294898 
-0.073382 1.034046 0.114539 
0.408858 0.096435 0.958494 
0.996156 0.145963 0.295429 
0.953065 0.344602 0.157440 
1.003799 0.127792 0.215905 
0.672045 0.520917 0.627310 
0.566095 0.756896 0.451558 
0.398336 0.836518 0.476455 
0.556408 0.543129 0.712929 
0.690304 0.671206 0.379077 
0.787635 0.429604 0.565792 
0.676433 0.614706 0.516027 
0.326126 0.731700 0.662749 
0.485127 0.215096 0.915620 
0.053551 1.012072 0.216066 
0.151176 0.978966 0.303432 
0.515071 0.320904 0.871371 
0.225497 0.803079 0.611447 
0.311599 0.673337 0.727203 
0.309459 0.885036 0.448501 
0.522498 0.503076 0.765089 
0.327986 0.515594 0.834240 
0.078362 0.909616 0.483343 
0.256413 0.961095 0.283288 
0.596327 0.295841 0.832934 
0.322710 0.595705 0.786389 
0.151598 0.863253 0.547502 
0.317249 0.443759 0.873693 
0.001776 0.945775 0.423922 
0.808906 0.543198 0.353275 
0.888692 0.350142 0.462618 
0.527039 0.409447 0.825866 
0.224351 0.940409 0.374317 
0.190993 0.909054 0.462736 
0.431596 0.511107 0.811939 
0.108948 0.593261 0.812035 
-0.059485 0.837258 0.580983 
0.086123 0.810479 0.629771 
0.182825 0.663775 0.762308 
0.130257 0.501876 0.867064 
-0.131150 0.886332 0.498893 
0.712397 0.371481 0.698731 
0.505232 0.839761 0.338700 
0.263174 0.985655 0.123359 
0.650963 0.092661 0.852756 
-0.074187 0.969810 0.369944 
0.293559 0.377992 0.909157 
-0.072633 1.020722 0.213328 
0.388381 0.207388 0.951825 
0.348256 0.777613 0.599372 
0.406388 0.661069 0.705930 
0.393023 0.327731 0.908048 
0.002805 0.990289 0.317043 
0.953892 0.263923 0.361798 
0.897707 0.445831 0.258905 
0.223068 0.516331 0.857296 
-0.029617 0.899950 0.498208 
0.166954 1.010007 0.105751 
0.594155 0.070917 0.892049 
0.081728 1.023253 0.125098 
0.530802 0.101060 0.916596 
0.145470 0.429987 0.900165 
-0.179072 0.918460 0.433828 
-0.194388 1.006830 0.216887 
0.281435 0.210682 0.969431 
0.301018 0.295005 0.941613 
-0.123298 0.996057 0.295757 
0.606844 0.600614 0.614720 
0.541181 0.734340 0.515209 
0.462041 0.775819 0.530733 
0.547606 0.612566 0.657737 
0.735766 0.521927 0.542806 
0.691910 0.641150 0.448057 
0.608886 0.655569 0.552134 
0.360545 0.928875 0.270445 
0.664091 0.280812 0.787865 
0.745702 0.622791 0.345229 
0.839045 0.389175 0.523175 
0.619380 0.697445 0.483511 
0.674329 0.563405 0.576776 
0.792906 0.473567 0.515998 
0.734091 0.474125 0.604329 
0.622944 0.726752 0.414440 
0.369340 0.817995 0.531694 
0.490004 0.606016 0.708971 
0.835430 0.474139 0.443233 
0.756184 0.586651 0.410531 
0.922455 0.309399 0.415666 
0.946893 0.342006 0.226673 
0.426850 0.858662 0.401846 
0.631494 0.452906 0.724723 
0.696308 0.453651 0.665956 
0.535638 0.800260 0.398581 
0.434036 0.752080 0.583439 
0.438812 0.692225 0.647285 
0.096558 0.739079 0.703336 
0.489911 0.797989 0.465170 
0.620834 0.536909 0.669242 
0.040817 0.685559 0.743407 
-0.011404 0.761738 0.670385 
0.539662 0.835175 0.268133 
0.765840 0.273945 0.697208 
1.016532 0.108230 0.153157 
0.667998 0.189650 0.824291 
0.311013 0.959355 0.198535 
0.837293 0.105864 0.675421 
0.601497 0.806461 0.150367 
0.828575 0.332700 0.579244 
0.692233 0.694880 0.302772 
0.695616 0.721290 0.176411 
0.884196 0.122452 0.611526 
0.327077 0.100171 0.978749 
-0.171606 1.025444 0.115228 
0.952157 0.105338 0.467482 
0.846874 0.545112 0.152144 
0.784855 0.628197 0.163820 
0.918023 0.126913 0.531849 
0.841080 0.521927 0.292073 
0.697375 0.322848 0.744898 
0.439763 0.884589 0.302513 
-0.254226 1.013617 0.078815 
0.257073 0.064657 0.989684 
0.247465 0.136375 0.985813 
-0.252509 1.006086 0.145183 
0.498630 0.879789 0.137983 
0.784192 0.095157 0.739598 
0.385443 0.941836 0.132558 
0.721070 0.094601 0.797222 
0.561086 0.831262 0.196856 
0.803505 0.173799 0.697048 
0.440653 0.902559 0.215430 
0.732742 0.206507 0.760228 
0.696174 0.707650 0.246796 
-0.415784 0.375282 0.770607 
-0.613171 0.748514 0.327882 
-0.895652 0.255595 0.291459 
-0.225489 0.273870 0.892090 
-0.124350 0.246318 0.931234 
-0.060801 0.186046 0.962455 
0.018766 0.125673 0.985110 
-0.491913 0.698718 0.515882 
-0.777901 0.219884 0.495542 
-0.830665 0.521034 0.240487 
-0.334084 0.556725 0.723544 
-0.553168 0.207574 0.724061 
-0.220302 0.574901 0.759392 
-0.546696 0.131260 0.741315 
-0.761840 0.671310 0.179909 
-0.919479 0.383172 0.152034 
-0.181032 0.474500 0.828915 
-0.378083 0.165704 0.849023 
-0.688798 0.773518 0.114731 
-0.968356 0.287267 0.062396 
-0.819762 0.376515 0.370846 
-0.690799 0.615863 0.388397 
-0.395425 0.842644 0.426869 
-0.866946 0.094663 0.385273 
-0.091319 0.406538 0.881322 
-0.277085 0.129055 0.901141 
-0.632705 0.829683 0.074817 
-0.984053 0.229843 0.005545 
-0.401941 0.915944 0.287163 
-0.943244 0.061644 0.223026 
-0.179262 0.074335 0.940011 
0.020273 0.340511 0.932130 
-0.647962 0.455767 0.554241 
-0.579781 0.870687 0.073286 
-0.991226 0.180799 -0.004456 
-0.389436 0.940660 0.230356 
-0.965001 0.042361 0.155139 
-0.051879 0.099182 0.973493 
0.049349 0.210605 0.967313 
0.036208 0.057014 0.990786 
-0.490206 0.523012 0.648219 
-0.614168 0.317607 0.645356 
-0.589186 0.598123 0.516209 
-0.744427 0.332173 0.504597 
-0.480767 0.260606 0.764858 
-0.355399 0.475232 0.760697 
-0.505772 0.400682 0.702282 
-0.772696 0.504556 0.359452 
-0.455949 0.864804 0.327974 
-0.918707 0.111766 0.276173 
-0.513772 0.795421 0.385923 
-0.877039 0.179208 0.348121 
[...]
POINT_DATA 2044
SCALARS u float 1
LOOKUP_TABLE default
2.157875
6.466533
2.271673
6.829686
4.078174
2.147037
2.362023
2.756965
3.078594
3.428839
3.902357
4.336200
4.748988
5.151354
5.535838
5.909049
6.171768
6.446389
6.627429
6.750633
6.801838
6.739364
6.620928
6.386835
6.097021
5.757501
5.338561
4.898212
4.441922
3.958753
3.470362
3.023191
2.677691
2.435329
2.214972
2.404312
2.669130
3.005098
3.374354
3.771195
4.200942
4.617052
5.008507
5.372566
5.667216
5.909673
6.134076
6.304293
6.441313
6.471849
6.397884
6.294549
6.132877
5.889068
5.649810
5.328569
4.960627
4.576738
4.128480
3.704785
3.289411
2.917193
2.575799
2.357530
2.142129
1.782609
1.506971
1.331997
1.333668
1.465443
1.819476
2.051493
2.427795
2.758106
3.181470
3.482361
3.640402
3.847719
3.971958
4.062506
3.952338
3.502027
2.818151
2.125192
1.264149
0.313527
0.754424
1.764845
2.751222
3.673189
4.544543
5.325026
5.949644
6.393656
6.554867
4.023395
3.952593
3.835777
3.568967
3.247050
2.860244
2.428691
1.987427
1.666807
1.347541
1.193881
1.090500
1.294579
1.559879
1.921448
3.966482
3.587259
3.068071
2.219056
1.279167
0.254023
0.941059
2.012492
3.018089
4.001073
4.916532
5.700256
6.286144
6.710068
6.900785
2.234838
2.279382
4.910307
2.032160
1.980939
1.850478
1.982921
4.608806
2.336721
1.995629
3.653676
1.810600
3.915477
1.794880
0.981004
3.707315
3.187137
1.776700
1.814007
4.927479
3.459480
1.623916
5.741393
3.169465
2.896564
1.557380
2.420106
5.540260
6.190193
3.683134
2.655252
1.465587
2.438274
2.903805
5.954963
6.304228
3.801005
1.609856
2.390415
1.756194
1.968124
3.241790
3.581340
1.894999
3.037569
1.837475
2.412180
2.119723
3.290465
5.959373
5.383114
2.744794
2.773466
1.535710
4.022543
1.907762
1.509416
4.263150
5.198506
2.675241
1.310129
3.524524
1.953757
4.885229
2.522137
1.837545
2.365636
4.811093
4.220678
1.841162
0.439956
3.406556
2.767405
1.096462
1.117859
4.315663
1.994580
4.092195
5.566149
3.153522
5.380941
2.372588
6.184556
3.488261
2.682474
1.790039
2.730200
5.613379
1.713450
2.403541
1.231785
4.255137
5.822548
3.509086
6.016593
3.622915
1.751514
4.951248
6.324770
3.527000
2.969705
5.885030
2.092009
2.895301
3.022361
2.017128
2.024489
2.697011
2.447246
4.953952
2.430911
2.915121
1.826108
2.866280
2.051645
1.988405
1.958458
3.210397
3.236112
1.837192
2.169140
2.547404
1.752741
2.152371
3.984465
2.056332
2.013427
3.638148
2.670652
2.112197
1.843478
3.400997
2.014264
1.217640
2.274574
4.258613
1.993988
1.972348
2.875564
5.352008
2.011827
4.303827
1.688956
3.377575
3.786394
1.838685
3.899725
6.441054
1.449173
3.044493
3.371069
1.502784
2.596486
2.207492
4.515976
6.499061
4.047096
3.825121
6.485894
4.757650
2.378325
5.181416
2.755194
4.387484
2.058166
4.850969
2.386664
3.600478
1.826253
5.466539
2.703661
2.382157
2.720985
3.195695
3.702252
4.017381
2.149442
4.571085
1.772517
2.245666
1.236635
2.260008
5.623995
3.909557
1.064033
2.665508
6.156418
3.406525
3.270807
4.573618
5.069991
1.550050
1.604348
3.058258
6.322742
3.119288
6.006689
1.623760
3.548144
2.313985
2.952905
6.427429
2.838838
6.287561
1.691233
3.741136
3.244866
3.969331
2.494967
2.280303
3.683248
2.654270
2.197046
1.593119
2.083312
4.114658
5.709575
1.863823
5.252848
2.116624
4.687054
3.952963
4.298324
2.708362
5.567710
3.362060
4.541717
1.877914
3.664441
5.174506
3.138165
5.912832
1.696196
2.293914
2.410126
4.837812
3.008183
5.060409
4.279612
5.681683
4.397497
5.234346
5.991536
3.854437
1.981423
2.631741
4.333742
1.298278
6.185517
2.965927
6.282616
2.090623
3.559129
4.197276
2.512348
5.969630
3.083962
3.706950
5.896308
5.008337
1.226375
5.543285
1.349174
3.530108
6.170050
6.515320
2.422760
2.663987
6.364172
2.760734
2.531248
2.847817
3.296823
1.863657
2.023322
2.437209
3.701788
1.777604
2.267739
1.386557
2.227853
2.265850
1.627570
2.006081
2.178803
2.215300
3.913926
3.066086
1.830490
2.001881
2.824572
3.411897
2.255099
2.569074
2.250252
3.241100
3.633179
4.928366
2.464081
3.056311
4.833915
5.237199
1.908538
2.193434
1.584278
3.999154
1.347373
2.308320
1.272500
2.485904
2.583209
0.569647
6.537580
1.950518
3.312728
1.590612
0.912783
3.002125
1.853992
3.077701
2.140602
6.551784
2.310357
6.553501
2.685982
2.319201
1.798585
3.353357
1.573860
2.688451
1.823051
2.065201
1.748051
2.936014
3.858620
4.002162
1.869879
2.345387
5.589440
2.481924
2.983872
3.346959
1.885341
4.237950
4.530456
2.126077
1.901286
2.198750
1.582340
3.640404
5.603394
2.564736
1.318902
3.065514
6.331818
4.624301
3.070983
1.231431
5.340062
2.973846
1.780291
2.784315
6.583937
1.341089
6.309795
2.467092
3.443371
2.938760
2.534674
6.709384
1.464124
6.577416
3.006501
3.570001
2.201481
2.525099
2.432502
3.770124
1.573957
2.177016
2.013290
3.961054
1.474598
5.972573
1.771245
5.450614
3.819615
4.682807
2.391218
4.421710
3.083539
5.623077
1.575088
4.751166
5.183243
3.439374
6.045183
2.812464
2.610332
1.751224
4.965272
2.069815
5.113738
2.709330
5.693289
4.065109
5.206117
4.204178
3.552879
6.141511
2.794789
1.892610
1.059730
4.652540
2.618597
6.347252
1.763659
6.510250
3.978530
3.388390
6.174431
2.131767
2.629570
3.206488
5.957946
3.396702
1.054027
5.357668
1.124853
5.892970
6.378807
3.176482
2.139432
6.810382
6.569403
2.321205
2.460264
2.767813
3.348420
2.683638
1.984710
1.826451
2.368874
1.511719
3.937659
1.455272
2.306165
2.212833
2.106815
2.041110
2.108263
2.017105
2.868488
3.935762
2.046860
1.685470
2.064646
3.551844
2.133552
2.669366
2.885019
3.478877
3.340044
4.832306
3.136447
2.340145
5.221373
4.702237
2.386532
1.846426
4.291338
1.307546
2.176836
1.330464
2.318737
1.339033
0.940284
2.513470
1.783290
6.878602
1.686996
3.242384
2.990422
0.898609
3.281379
1.732066
6.891038
2.039827
6.873726
2.097822
1.929755
1.784539
2.512539
3.625014
1.361357
0.551072
1.943907
2.015876
3.186366
1.575984
3.864242
3.566256
3.955114
3.714655
2.448299
5.339465
2.140980
2.163417
1.959545
1.908815
1.835130
1.902589
4.941851
2.195483
2.232763
3.963718
1.978794
4.116104
1.997473
4.086258
0.960459
3.460372
1.610141
5.323682
1.915128
1.557483
3.826613
6.075667
3.232560
1.540717
2.986384
5.944343
2.589744
6.509945
3.671741
2.833608
1.369807
2.506735
6.329460
3.101564
6.666810
3.802463
2.323635
1.500884
3.412524
1.917669
3.877178
1.776366
1.952768
3.292564
2.461372
2.423911
6.282817
3.351611
5.703072
2.750221
3.108760
1.602418
4.429767
1.768165
4.703779
1.536084
5.498105
2.721824
1.293693
3.904565
1.987013
5.299230
2.834664
1.943666
2.195452
5.174052
1.672218
4.669023
0.390720
3.747645
1.194569
3.104771
4.675872
1.086610
2.043436
4.338129
5.850503
3.231959
5.786715
2.463071
6.523308
3.496944
1.943699
3.134464
2.803120
5.987583
1.674639
2.410030
1.263358
4.655532
6.136035
3.463682
6.351049
3.609809
1.847080
5.351464
6.613919
3.564361
3.069965
6.276112
3.019027
2.106317
1.957964
3.202852
2.893390
2.142388
2.499840
5.218152
2.566552
1.890074
3.082783
2.116108
2.933712
2.825570
3.421637
1.905354
3.480593
1.768819
2.416227
2.061084
4.324918
1.901160
3.917003
1.860106
2.611674
2.127199
2.674137
2.139633
1.881759
3.624098
1.516540
2.582451
2.157620
4.491056
2.884249
5.632170
4.527841
2.080476
3.589928
1.758100
1.757223
4.063723
6.808754
3.953035
1.431584
3.219986
3.555754
1.668399
2.248710
4.771138
4.008076
6.878555
3.894659
6.830130
1.724894
4.996692
2.539812
5.447719
2.895478
1.945061
4.616754
2.163996
2.510184
5.102896
2.215454
1.538787
2.486267
1.232718
2.336423
2.283072
1.142475
1.835849
1.976589
1.966593
2.040118
3.318607
2.518277
2.108403
1.457158
2.242490
2.246439
2.946998
2.050833
2.200664
3.771990
2.421718
3.539118
1.418406
3.853678
2.263959
2.286170
4.490200
3.861627
3.402065
1.554068
0.832891
2.352442
2.858163
2.786772
4.215815
3.285199
3.508470
1.188037
1.782875
2.258073
1.245632
0.988936
2.066623
2.344531
1.995625
4.263452
2.202193
4.804754
2.623268
2.433777
2.169492
2.148562
2.624657
4.773635
5.245229
5.010411
3.293753
1.222400
2.419385
2.695544
2.267606
2.449248
2.289132
2.044781
2.264881
3.780100
2.005795
2.338969
2.452886
2.104815
2.317894
2.559815
5.069017
3.321693
4.700278
2.939978
2.759099
2.194240
1.949396
4.358353
1.644330
1.958205
2.417734
1.003620
2.153839
2.282930
2.087892
2.669287
0.325680
1.059185
2.878082
2.453928
1.608744
4.444914
5.154701
3.591285
4.350068
2.911288
2.092937
2.231091
1.716159
0.206909
2.347751
1.427487
2.358328
2.207960
1.940359
2.278205
5.314011
1.959086
5.251343
5.750118
2.626462
2.946229
2.167748
4.166219
5.188972
2.518300
2.216807
3.232060
0.682736
1.994231
1.521836
1.719994
2.247148
2.528551
3.639547
2.103879
3.216307
2.282507
2.613115
2.107658
2.037914
5.669063
5.455779
2.664087
2.880989
1.447324
0.672369
3.594262
3.661737
2.361608
5.227645
3.270183
4.568508
4.322634
2.719692
2.437188
3.260569
1.397026
1.505748
2.323674
2.224933
2.062649
2.186778
2.228979
1.826237
2.403451
1.643921
2.271150
2.218398
2.040753
4.084429
3.983323
1.088023
3.571397
4.982265
1.229711
3.912258
2.380367
1.979235
1.666911
2.256737
1.688157
2.446180
2.343721
2.064332
1.952685
0.655614
2.200988
3.289347
2.503957
2.203732
2.786731
2.239607
2.205120
5.999028
5.882398
2.441025
2.251444
2.683194
4.270966
2.665379
5.117921
2.415382
4.641172
2.363052
3.437292
2.880498
2.348146
2.322538
4.530168
3.946959
5.491518
1.091711
2.334095
2.425972
1.323382
2.248149
5.311445
2.230138
5.777736
3.001041
2.684090
4.652468
4.422967
2.955463
3.993946
5.612605
5.000704
2.242446
2.330772
2.343284
3.750660
3.031240
2.078204
4.979629
5.033566
2.314651
1.640394
2.423071
2.246677
3.688335
2.232383
2.421257
2.138841
2.062275
2.367199
6.139218
5.895847
1.785898
3.692568
2.396088
4.287042
2.616977
1.964361
5.737045
1.803615
2.186045
5.910961
5.421216
3.754445
2.316322
1.808719
1.390366
2.431150
4.494974
1.638573
3.495918
1.468734
3.169464
2.159854
2.388589
3.419955
1.843722
2.524440
2.189729
2.160405
0.817229
2.297625
0.851379
1.879152
4.469905
2.163601
2.488621
5.095784
3.775516
4.219428
4.753126
2.290248
3.478406
4.118500
2.769156
4.806329
1.703981
3.013171
2.337512
2.349062
5.622614
2.306811
2.270668
2.811853
0.314255
2.850512
2.229919
2.379027
1.457563
2.186398
2.608777
3.975184
5.059047
3.024223
2.309879
1.360904
1.709605
2.241360
5.775995
3.105602
2.020388
1.757615
2.333727
0.615342
2.298799
1.772634
1.793612
2.375068
2.399701
1.306046
2.424240
2.223815
4.446079
2.591296
3.949443
3.998073
1.945513
2.288303
2.977191
3.834955
1.857703
2.228729
2.322272
4.183938
3.129621
1.802519
3.145001
4.780612
2.894553
2.410693
2.043287
2.320854
2.305070
3.244725
1.837611
2.474493
2.761556
2.058078
1.864363
2.017442
5.000662
1.945655
3.019494
1.038386
4.474563
2.918621
2.484559
2.107956
0.961940
2.204542
1.713369
3.147558
3.471400
3.901632
3.987555
0.345711
1.248154
2.281562
1.894759
2.333560
0.653840
2.112892
2.463825
3.329875
0.833021
4.534362
3.969700
2.221592
2.165545
1.925501
5.722774
2.537424
3.984019
2.297179
2.150248
4.555449
3.260348
2.436944
2.249157
3.816310
2.601386
1.091605
3.234489
3.520237
1.319366
2.067288
1.924976
2.099265
2.076879
5.986037
1.685328
2.381872
2.516034
0.873862
2.668540
2.249549
2.557926
2.620057
2.395881
4.758209
4.208394
2.407806
2.330625
2.247813
0.712446
1.384817
1.767840
1.806808
1.635042
1.748134
1.692159
1.573801
1.858265
2.219545
2.247517
2.529439
2.366242
1.934862
2.057340
2.343183
1.530038
1.848947
3.570679
2.535979
3.132366
3.610380
3.651212
2.787870
3.697067
3.563726
3.260442
3.564357
2.875057
3.253296
3.448800
2.766885
3.069828
3.188251
2.654195
2.150292
2.049359
3.881918
3.772142
3.457283
3.116564
3.236842
2.623974
2.571889
0.934974
2.342163
2.744342
2.517005
3.316878
2.060633
2.653586
0.285957
1.099540
1.224276
2.022128
1.886194
1.992936
2.406620
1.986514
1.819965
3.759494
1.905326
3.332420
1.067762
2.114844
2.958188
1.310702
0.860873
0.525507
0.735380
2.790389
1.748850
4.493008
5.226862
4.608998
3.770456
2.806298
2.950664
2.745334
2.647242
4.557352
5.115771
4.824505
2.699612
2.064063
1.723324
1.936060
2.365046
1.543965
3.320807
2.342323
0.529812
1.383113
2.220617
2.932885
1.707372
1.986750
2.062694
2.295946
2.091724
2.669864
1.604340
2.050237
1.580934
1.629782
2.206559
2.820402
2.050725
3.009590
1.711224
2.921726
2.851734
3.548277
2.805021
3.438249
2.218662
2.742582
2.316909
2.294505
1.685467
2.359570
1.586922
1.463687
5.773128
1.980631
1.852333
1.776861
0.701173
3.359738
3.573207
3.456462
3.839573
2.606888
3.711562
2.902965
2.539981
1.759862
1.870764
1.991754
2.134647
2.073758
1.715951
2.046652
2.298040
1.881275
2.166460
2.352958
4.545012
2.994163
1.897906
1.385517
2.186740
1.875541
1.822659
2.791102
1.690391
1.082026
3.200888
2.979600
2.040111
2.238949
2.490018
4.578529
1.737402
1.753570
1.723166
1.671374
1.662195
2.314843
3.570158
3.677415
4.776631
0.500685
3.376176
2.136706
2.528572
2.144693
2.117016
2.549695
1.746298
1.812552
1.878217
1.748429
1.863661
1.828955
1.761765
2.022743
3.230745
3.897007
3.724639
2.378246
2.752024
3.635469
3.475601
3.643732
1.924464
3.857085
3.382820
4.284240
4.202460
2.920202
1.080898
2.378196
2.132839
2.197862
1.706605
1.999626
1.659860
1.752836
0.527194
2.172443
2.235521
4.592735
0.352038
2.543596
0.353647
1.238614
0.975506
1.196349
0.482906
2.318526
1.897980
1.891989
1.507322
0.962566
1.259339
3.227572
4.310006
3.372220
1.864460
4.645620
2.633770
1.770787
3.658622
2.690302
2.679826
1.742729
3.343452
3.084384
0.993422
1.822350
1.094162
3.061078
1.881131
0.933022
1.058369
0.908183
3.354337
2.071598
3.090013
2.617724
1.939892
1.790821
1.661958
1.458391
1.753595
1.978442
2.492522
2.094490
2.382253
3.504365
2.485768
2.999804
3.902296
5.824454
5.816467
4.902780
5.861123
4.887355
5.732942
5.917015
5.730055
3.779554
3.835787
3.440728
3.399241
3.786869
3.887367
3.910957
2.308567
2.155298
2.019008
1.867324
1.908438
1.769726
1.747666
1.787311
1.587144
2.406916
2.543500
2.357320
2.300109
5.096733
4.328824
5.227929
4.491815
3.632564
3.060934
4.627165
1.773382
2.588951
3.913430
4.496591
3.370939
4.632834
1.679608
1.888969
1.475776
1.487472
1.783598
1.915532
2.429286
1.891213
2.146665
2.173772
1.954732
2.865467
2.764271
2.496692
3.323591
3.187264
1.838354
2.981539
0.561012
1.753390
2.557295
2.131104
1.061427
0.832146
3.753481
1.524932
2.363331
1.082630
0.969590
1.621404
2.471718
2.274891
1.675276
2.481042
2.636932
1.573934
1.582469
3.162622
1.633860
1.628109
1.161662
1.249723
2.491447
2.743990
1.618861
1.484210
1.911847
1.732256
1.860806
2.396913
1.445645
2.043326
2.242834
1.643750
1.802710
1.659391
0.729754
0.804060
0.114960
1.429600
1.896816
2.681856
3.326027
2.987335
2.870170
1.739274
1.858889
1.632432
1.785817
2.059132
2.244130
0.581014
0.575366
2.860215
2.131954
2.631853
4.997067
2.881672
1.902150
1.705523
1.814967
2.072929
2.045988
3.377366
2.226974
3.172626
3.530664
4.035666
3.646178
1.822648
1.955671
1.842104
1.863579
1.404421
2.210591
0.735463
1.844195
0.797893
1.067634
0.269211
0.656107
1.945925
2.352396
2.096269
1.738960
1.978970
3.556059
1.537108
1.417507
1.901706
1.690871
2.048463
1.904432
2.035317
2.135927
2.097865
2.121124
2.019201
2.075551
2.366414
1.017117
2.004537
1.905084
1.926520
3.868876
1.878834
2.118038
1.887451
2.053431
2.721817
1.992383
1.933771
4.056765
4.260082
3.227490
3.081308
1.676714
1.773436
1.691308
3.239449
1.879865
4.924218
1.971098
1.949346
3.099124
0.330851
0.947109
0.372509
2.155929
1.770790
1.655505
4.944479
1.187027
1.900798
1.889946
1.850505
2.071595
1.040266
1.146493
2.305549
2.173745
1.979704
1.970862
2.027906
0.964132
4.418969
2.132047
2.146191
2.369071
2.180114
3.745069
1.842218
1.748170
1.732713
2.465931
1.822996
1.777063
1.354945
1.345275
2.352481
3.040300
2.254513
2.855903
2.119454
2.498807
3.024733
3.266412
1.809066
1.776366
2.268679
2.186812
2.747318
3.284147
2.920017
4.261250
3.409554
3.642606
3.196224
2.601135
3.279023
3.513634
2.765042
2.197777
1.892684
2.120839
1.435066
1.601269
1.590489
1.918979
1.380615
1.140510
0.850048
2.793451
1.252625
2.985508
2.039450
1.907600
1.673383
1.881396
1.979715
1.315638
1.461145
1.530784
1.664853
0.604623
1.064860
0.943521
1.213857
1.452599
1.828171
3.027727
1.582352
1.578663
1.788045
1.988904
2.301530
1.628980
1.866631
2.134908
1.835508
1.850073
0.934146
3.008988
3.114352
1.968316
1.942869
2.133531
3.997123
5.024204
4.126866
4.022916
2.561729
3.400960
2.414492
1.809882
1.615441
2.167474
4.367058
2.094793
2.191816
2.022548
1.965219
2.002334
3.830086
3.389704
3.884851
3.916895
3.791494
1.930299
2.155234
1.047018
0.516534
1.936099
2.000045
2.176590
2.221499
3.625070
4.290638
4.165626
3.307591
1.907079
1.864678
3.990433
2.052859
2.414373
1.603346
4.008221
2.105460
2.141980
4.946222
1.300164
1.623402
2.610616
3.200988
2.492611
2.020522
1.988363
2.036553
2.049350
2.114564
5.129165
5.012607
1.992764
1.936459
2.649947
1.882816
1.832944
2.997023
3.059826
1.649258
2.338128
1.869172
1.768798
2.252380
2.232663
2.447184
1.584065
1.502871
1.488346
2.892268
2.751985
2.070267
2.379907
2.222058
2.302351
4.048479
2.892436
3.020561
1.991994
2.091108
2.534278
2.793046
2.248010
2.356207
1.253188
1.506808
3.783197
1.953717
2.235188
1.995686
2.169978
1.886980
3.957734
3.830032
1.611137
4.316157
4.184091
1.700556
1.759747
1.760363
1.799659
1.604105
1.612167
1.780404
1.799669
2.170619
2.241787
1.964777
1.979046
2.071648
1.917848
0.421373
1.029522
2.168507
2.433221
2.041912
1.781402
1.743324
4.132172
1.852397
4.086056
4.244330
3.900034
2.833717
2.146747
1.880854
2.091524
1.236113
1.977173
1.281290
0.813768
0.943407
0.398032
2.247025
2.004604
2.099072
1.908458
2.162157
2.086347
1.846841
1.629368
1.947909
0.825604
5.013631
4.886326
3.499168
1.607607
4.921911
3.087801
2.330243
2.619803
4.952946
4.040793
1.847275
1.901087
4.932695
1.935033
1.862648
2.534149
1.305032
1.344507
1.908500
1.773005
4.784066
3.399905
1.902182
1.506384
1.616905
2.077551
0.926069
0.862168
2.433234
2.055560
2.209240
1.840610
1.892231
3.230754
1.451560
1.703748
0.952926
1.157531
0.969849
2.082736
4.181662
2.920841
2.864554
1.708611
1.711695
2.585400
2.648307
2.526039
2.079590
2.934766
2.377753
2.160590
2.192652
2.146960
2.765702
2.476851
2.434702
2.128932
2.545785
2.294917
2.526660
2.225872
2.119323
2.078120
2.307891
2.168966
2.204998
2.891228
3.042515
2.990107
2.940808
2.480538
2.975545
3.132602
2.963171
2.782780
2.886603
2.307678
2.330548
2.381884
2.262230
2.042449
2.274307
2.096102
2.695998
2.690310
2.351689
1.834933
1.916970
1.793414
2.446592
0.598554
0.379360
0.926447
1.267360
1.945967
2.026245
1.971678
1.930724
2.043724
1.808930
2.468102
2.475326
1.881481
1.812069
1.978762
1.909073
1.928202
0.290130
0.553403
0.407299
0.679565
2.835992
2.628533
1.355746
0.717192
1.044087
0.733246
1.638664
2.059650
1.691276
1.939580
1.978657
1.416354
2.151022
1.453736
1.208202
1.219861
1.468179
1.527928
1.768107
1.843421
2.261122
1.805715
1.536179
1.420052
1.743299
1.745427
