# vtk DataFile Version 2.0
Unstructured Grid Example
ASCII
DATASET UNSTRUCTURED_GRID
POINTS 2044 float
1.004602 -0.000401 0.019890 
-0.061120 0.999982 0.002933 
-0.999460 -0.002418 -0.021353 
-0.064596 -0.998027 0.000180 
0.038580 -0.000034 0.999142 
0.998100 -0.103691 0.019289 
0.980982 -0.206503 0.019216 
0.954934 -0.306992 0.019935 
0.916622 -0.403587 0.018948 
0.869919 -0.495546 0.018041 
0.813075 -0.582347 0.017556 
0.747890 -0.662378 0.016412 
0.675083 -0.734975 0.014737 
0.595931 -0.800030 0.012909 
0.510906 -0.856643 0.010742 
0.420888 -0.904204 0.008878 
0.327618 -0.942057 0.006929 
0.230979 -0.970421 0.004692 
0.133107 -0.989695 0.003399 
0.034232 -0.998149 0.001768 
-0.161944 -0.987770 -0.001003 
-0.257500 -0.967956 -0.002687 
-0.350557 -0.940308 -0.003968 
-0.439188 -0.903075 -0.005187 
-0.523496 -0.858123 -0.006912 
-0.602811 -0.805651 -0.008359 
-0.675622 -0.745587 -0.010003 
-0.742226 -0.679474 -0.012303 
-0.801754 -0.607317 -0.014402 
-0.854112 -0.529881 -0.015187 
-0.898528 -0.448674 -0.016920 
-0.934845 -0.363560 -0.018232 
-0.963218 -0.275556 -0.019639 
-0.983831 -0.185537 -0.020749 
-0.996369 -0.094459 -0.020621 
-0.995918 0.089516 -0.021090 
-0.983475 0.180651 -0.020547 
-0.963418 0.270963 -0.019832 
-0.935149 0.359257 -0.018540 
-0.898076 0.444660 -0.017252 
-0.852314 0.526095 -0.016641 
-0.799955 0.603517 -0.015146 
-0.740151 0.675660 -0.012858 
-0.673255 0.742397 -0.011712 
-0.599772 0.802839 -0.010114 
-0.520750 0.856673 -0.007340 
-0.436339 0.902215 -0.004567 
-0.347482 0.940281 -0.003091 
-0.254872 0.968940 -0.000942 
-0.158917 0.988776 0.000706 
0.037955 1.001188 0.004651 
0.136881 0.991916 0.005954 
0.234818 0.972218 0.007606 
0.331352 0.943235 0.009789 
0.424217 0.904784 0.010467 
0.513844 0.857159 0.011890 
0.598755 0.800427 0.013476 
0.677258 0.735005 0.014363 
0.748833 0.661221 0.014896 
0.814049 0.581401 0.016070 
0.869883 0.494628 0.016860 
0.916862 0.402609 0.017769 
0.954802 0.306147 0.018382 
0.982414 0.206497 0.019102 
0.998729 0.104092 0.019011 
0.998943 0.000065 0.114461 
0.986212 -0.000221 0.208275 
0.964292 -0.000004 0.300523 
0.933794 0.000631 0.390466 
0.894370 0.000830 0.477448 
0.848167 0.000534 0.559733 
0.792320 0.000391 0.636353 
0.730033 0.000843 0.708305 
0.660466 0.000361 0.771912 
0.585646 0.000643 0.830300 
0.504279 0.000693 0.879888 
0.416962 0.000844 0.920581 
0.326592 0.000578 0.954282 
0.232596 0.000879 0.978502 
0.136411 0.000467 0.993319 
0.037397 0.098010 0.994758 
0.033138 0.195051 0.980773 
0.026666 0.290103 0.956900 
0.020101 0.382142 0.923657 
0.011932 0.470621 0.881569 
0.002765 0.554514 0.831262 
-0.007059 0.633367 0.773300 
-0.016631 0.705754 0.707792 
-0.025986 0.771739 0.635331 
-0.034716 0.830148 0.556655 
-0.042955 0.880662 0.472984 
-0.050353 0.923038 0.384383 
-0.056270 0.956404 0.292014 
-0.060467 0.980601 0.197086 
-0.061974 0.994685 0.100512 
-0.059953 -0.000169 0.995930 
-0.157739 0.000009 0.982732 
-0.254082 0.000189 0.959542 
-0.348976 -0.000443 0.925918 
-0.440715 -0.000355 0.883529 
-0.528544 -0.000757 0.832715 
-0.611416 -0.000030 0.773447 
-0.688316 -0.000609 0.706662 
-0.757455 -0.001280 0.632123 
-0.819514 -0.001557 0.551419 
-0.872844 -0.001740 0.464900 
-0.918231 -0.002067 0.374299 
-0.953113 -0.002427 0.278904 
-0.979358 -0.002746 0.180658 
-0.995310 -0.002230 0.079973 
0.037515 -0.097974 0.994027 
0.033917 -0.194418 0.979598 
0.028994 -0.289460 0.955717 
0.020992 -0.382326 0.923519 
0.012030 -0.470117 0.881540 
0.002079 -0.554387 0.831235 
-0.008834 -0.633282 0.772873 
-0.019017 -0.706143 0.707406 
-0.028515 -0.771421 0.634396 
-0.037809 -0.829499 0.555633 
-0.046459 -0.879495 0.471726 
-0.053883 -0.921426 0.382768 
-0.059437 -0.954605 0.290393 
-0.063458 -0.978639 0.194877 
-0.065265 -0.993068 0.098114 
0.765247 0.466647 0.462604 
0.357491 0.384148 0.862208 
0.295322 0.880019 0.378175 
0.892621 0.339609 0.324570 
0.934093 0.282825 0.250087 
0.957314 0.218305 0.226805 
0.972579 0.207549 0.147757 
0.483500 0.816380 0.326969 
0.537359 0.333214 0.791094 
0.263437 0.691762 0.680962 
0.701717 0.654709 0.293658 
0.733929 0.299738 0.629630 
0.730685 0.656106 0.198127 
0.774822 0.192331 0.625336 
0.213986 0.542031 0.819474 
0.175940 0.829194 0.536528 
0.822858 0.528827 0.222039 
0.839641 0.219806 0.524740 
0.152897 0.422016 0.897882 
0.090254 0.905240 0.420590 
0.376738 0.773491 0.520483 
0.407411 0.532558 0.754720 
0.374091 0.913583 0.162457 
0.452765 0.160486 0.890123 
0.879997 0.451387 0.167822 
0.897366 0.188423 0.426628 
0.114322 0.345855 0.932795 
0.039408 0.939332 0.347087 
0.226416 0.967575 0.118751 
0.317361 0.115302 0.950561 
0.929720 0.362569 0.103508 
0.939747 0.100908 0.359755 
0.556289 0.604941 0.585263 
0.112597 0.281113 0.955455 
0.029137 0.961467 0.282636 
0.166806 0.982980 0.091108 
0.260718 0.087583 0.968267 
0.972119 0.116965 0.244940 
0.959599 0.281611 0.088609 
0.989157 0.102910 0.153548 
0.655490 0.445711 0.626842 
0.634857 0.652078 0.432203 
0.500004 0.741377 0.460702 
0.530788 0.473686 0.717309 
0.748740 0.571720 0.350546 
0.764138 0.362559 0.554749 
0.699066 0.523794 0.504577 
0.373374 0.663635 0.659004 
0.358905 0.191175 0.924118 
0.274860 0.942901 0.191364 
0.344265 0.898537 0.278674 
0.415130 0.282077 0.877583 
0.313426 0.739894 0.604183 
0.330194 0.616235 0.725118 
0.437317 0.794697 0.432249 
0.478804 0.442877 0.771339 
0.283787 0.476780 0.839531 
0.235175 0.854209 0.470499 
0.434028 0.866745 0.252865 
0.500223 0.255309 0.841787 
0.308429 0.546492 0.787818 
0.275106 0.802787 0.537105 
0.247252 0.414148 0.881927 
0.185817 0.895965 0.410285 
0.838313 0.455277 0.319449 
0.866421 0.287098 0.436178 
0.449130 0.359799 0.831612 
0.390184 0.853918 0.352958 
0.336956 0.833250 0.447829 
0.383811 0.457248 0.814338 
0.105025 0.576529 0.813041 
0.072224 0.817953 0.574138 
0.185344 0.768208 0.620104 
0.204176 0.626727 0.758827 
0.087841 0.491306 0.868597 
0.036935 0.872349 0.490725 
0.657588 0.315998 0.701637 
0.617244 0.729100 0.309618 
0.453278 0.887128 0.083526 
0.528796 0.077548 0.861247 
0.131712 0.928155 0.355813 
0.203328 0.357380 0.916343 
0.163028 0.969493 0.193361 
0.252806 0.192204 0.956076 
0.417712 0.699266 0.592009 
0.418394 0.592183 0.701891 
0.289848 0.301247 0.916138 
0.213856 0.932154 0.299166 
0.933384 0.214763 0.321084 
0.912699 0.367916 0.208416 
0.182186 0.490805 0.857525 
0.132978 0.865832 0.487276 
0.374410 0.924301 0.066756 
0.457603 0.059972 0.901329 
0.302645 0.948642 0.092688 
0.390098 0.088007 0.927872 
0.077308 0.423750 0.903608 
0.014106 0.907171 0.424498 
0.051196 0.980350 0.201671 
0.143858 0.200462 0.973067 
0.185801 0.280754 0.946524 
0.103170 0.957126 0.280900 
0.610810 0.518858 0.613914 
0.598023 0.637209 0.502226 
0.532100 0.681439 0.517715 
0.548763 0.533651 0.658444 
0.733623 0.443259 0.533770 
0.731172 0.545331 0.427722 
0.635847 0.564056 0.543913 
0.519567 0.823000 0.237647 
0.578680 0.239663 0.795540 
0.796810 0.526637 0.311276 
0.815362 0.324635 0.503702 
0.665400 0.596403 0.467683 
0.676101 0.483241 0.572903 
0.783189 0.398069 0.499909 
0.710047 0.401595 0.598528 
0.688403 0.622368 0.389972 
0.459096 0.729444 0.520044 
0.482594 0.534517 0.708213 
0.832371 0.393526 0.416856 
0.787868 0.496009 0.383790 
0.901157 0.253824 0.381588 
0.950593 0.280383 0.169388 
0.542193 0.756133 0.379715 
0.582045 0.389658 0.730049 
0.657108 0.385317 0.666604 
0.625819 0.692759 0.374593 
0.492293 0.665784 0.574564 
0.471167 0.616264 0.643609 
0.159656 0.704613 0.697536 
0.573745 0.696222 0.447164 
0.599241 0.461135 0.671150 
0.085351 0.668748 0.741402 
0.075776 0.744266 0.666492 
0.656142 0.721843 0.231335 
0.699976 0.232167 0.695281 
0.998843 0.087532 0.080945 
0.559461 0.160640 0.830431 
0.489941 0.856733 0.162373 
0.760973 0.088714 0.666601 
0.714372 0.692728 0.098571 
0.791265 0.279772 0.566059 
0.765486 0.591265 0.265845 
0.781590 0.612621 0.123979 
0.818006 0.100400 0.593960 
0.174787 0.092782 0.984789 
0.077673 0.993882 0.095714 
0.909826 0.082910 0.437145 
0.889021 0.453463 0.088781 
0.845414 0.526513 0.105584 
0.870736 0.101090 0.508296 
0.871174 0.434702 0.249553 
0.625242 0.275447 0.748144 
0.575112 0.775297 0.271545 
-0.000731 0.999684 0.064251 
0.098840 0.061494 0.995023 
0.097953 0.130303 0.988974 
0.000587 0.992922 0.132018 
0.636915 0.765761 0.087689 
0.692556 0.078983 0.738470 
0.549191 0.831437 0.086719 
0.614539 0.079229 0.803293 
0.681217 0.717313 0.151515 
0.727977 0.146356 0.691774 
0.588555 0.790419 0.175719 
0.645332 0.173743 0.762839 
0.776282 0.600219 0.203341 
-0.440016 0.442486 0.768995 
-0.420532 0.841076 0.336455 
-0.869729 0.350897 0.329362 
-0.310604 0.311669 0.888275 
-0.227549 0.272231 0.927543 
-0.184647 0.202130 0.956232 
-0.125834 0.132163 0.979292 
-0.353953 0.774010 0.518587 
-0.789431 0.300978 0.514626 
-0.708797 0.648499 0.270334 
-0.295766 0.614532 0.723196 
-0.613840 0.271129 0.723297 
-0.190893 0.613312 0.760407 
-0.622096 0.177387 0.743960 
-0.578315 0.790378 0.203704 
-0.838706 0.504573 0.198275 
-0.201933 0.510506 0.829145 
-0.473308 0.207670 0.842047 
-0.470547 0.873981 0.132076 
-0.911924 0.392352 0.121885 
-0.767222 0.490254 0.396959 
-0.551458 0.727515 0.400377 
-0.201194 0.882912 0.424192 
-0.887645 0.142624 0.416091 
-0.148079 0.433299 0.883007 
-0.393663 0.155075 0.893931 
-0.400504 0.913983 0.088272 
-0.944045 0.322050 0.074782 
-0.168800 0.945463 0.283560 
-0.950779 0.102530 0.271070 
-0.317217 0.088512 0.933567 
-0.069648 0.351051 0.931156 
-0.596091 0.558662 0.562707 
-0.338114 0.939637 0.082857 
-0.963110 0.260416 0.067717 
-0.144642 0.964794 0.225956 
-0.969534 0.077052 0.211308 
-0.197928 0.107188 0.967681 
-0.077155 0.221364 0.968367 
-0.119032 0.059539 0.986797 
-0.439730 0.606531 0.650850 
-0.624283 0.406118 0.650293 
-0.482655 0.694951 0.522959 
-0.723443 0.432605 0.520698 
-0.534549 0.327652 0.763241 
-0.348108 0.537114 0.758892 
-0.502580 0.482115 0.704100 
-0.671619 0.628198 0.379863 
-0.238079 0.914222 0.328301 
-0.924719 0.171053 0.318213 
-0.319636 0.862793 0.389980 
-0.878687 0.254483 0.382618 
[...]
POINT_DATA 2044
SCALARS u float 1
LOOKUP_TABLE default
2.157875
6.466533
2.271673
6.829686
4.078174
2.147037
2.362023
2.756965
3.078594
3.428839
3.902357
4.336200
4.748988
5.151354
5.535838
5.909049
6.171768
6.446389
6.627429
6.750633
6.801838
6.739364
6.620928
6.386835
6.097021
5.757501
5.338561
4.898212
4.441922
3.958753
3.470362
3.023191
2.677691
2.435329
2.214972
2.404312
2.669130
3.005098
3.374354
3.771195
4.200942
4.617052
5.008507
5.372566
5.667216
5.909673
6.134076
6.304293
6.441313
6.471849
6.397884
6.294549
6.132877
5.889068
5.649810
5.328569
4.960627
4.576738
4.128480
3.704785
3.289411
2.917193
2.575799
2.357530
2.142129
1.782609
1.506971
1.331997
1.333668
1.465443
1.819476
2.051493
2.427795
2.758106
3.181470
3.482361
3.640402
3.847719
3.971958
4.062506
3.952338
3.502027
2.818151
2.125192
1.264149
0.313527
0.754424
1.764845
2.751222
3.673189
4.544543
5.325026
5.949644
6.393656
6.554867
4.023395
3.952593
3.835777
3.568967
3.247050
2.860244
2.428691
1.987427
1.666807
1.347541
1.193881
1.090500
1.294579
1.559879
1.921448
3.966482
3.587259
3.068071
2.219056
1.279167
0.254023
0.941059
2.012492
3.018089
4.001073
4.916532
5.700256
6.286144
6.710068
6.900785
2.234838
2.279382
4.910307
2.032160
1.980939
1.850478
1.982921
4.608806
2.336721
1.995629
3.653676
1.810600
3.915477
1.794880
0.981004
3.707315
3.187137
1.776700
1.814007
4.927479
3.459480
1.623916
5.741393
3.169465
2.896564
1.557380
2.420106
5.540260
6.190193
3.683134
2.655252
1.465587
2.438274
2.903805
5.954963
6.304228
3.801005
1.609856
2.390415
1.756194
1.968124
3.241790
3.581340
1.894999
3.037569
1.837475
2.412180
2.119723
3.290465
5.959373
5.383114
2.744794
2.773466
1.535710
4.022543
1.907762
1.509416
4.263150
5.198506
2.675241
1.310129
3.524524
1.953757
4.885229
2.522137
1.837545
2.365636
4.811093
4.220678
1.841162
0.439956
3.406556
2.767405
1.096462
1.117859
4.315663
1.994580
4.092195
5.566149
3.153522
5.380941
2.372588
6.184556
3.488261
2.682474
1.790039
2.730200
5.613379
1.713450
2.403541
1.231785
4.255137
5.822548
3.509086
6.016593
3.622915
1.751514
4.951248
6.324770
3.527000
2.969705
5.885030
2.092009
2.895301
3.022361
2.017128
2.024489
2.697011
2.447246
4.953952
2.430911
2.915121
1.826108
2.866280
2.051645
1.988405
1.958458
3.210397
3.236112
1.837192
2.169140
2.547404
1.752741
2.152371
3.984465
2.056332
2.013427
3.638148
2.670652
2.112197
1.843478
3.400997
2.014264
1.217640
2.274574
4.258613
1.993988
1.972348
2.875564
5.352008
2.011827
4.303827
1.688956
3.377575
3.786394
1.838685
3.899725
6.441054
1.449173
3.044493
3.371069
1.502784
2.596486
2.207492
4.515976
6.499061
4.047096
3.825121
6.485894
4.757650
2.378325
5.181416
2.755194
4.387484
2.058166
4.850969
2.386664
3.600478
1.826253
5.466539
2.703661
2.382157
2.720985
3.195695
3.702252
4.017381
2.149442
4.571085
1.772517
2.245666
1.236635
2.260008
5.623995
3.909557
1.064033
2.665508
6.156418
3.406525
3.270807
4.573618
5.069991
1.550050
1.604348
3.058258
6.322742
3.119288
6.006689
1.623760
3.548144
2.313985
2.952905
6.427429
2.838838
6.287561
1.691233
3.741136
3.244866
3.969331
2.494967
2.280303
3.683248
2.654270
2.197046
1.593119
2.083312
4.114658
5.709575
1.863823
5.252848
2.116624
4.687054
3.952963
4.298324
2.708362
5.567710
3.362060
4.541717
1.877914
3.664441
5.174506
3.138165
5.912832
1.696196
2.293914
2.410126
4.837812
3.008183
5.060409
4.279612
5.681683
4.397497
5.234346
5.991536
3.854437
1.981423
2.631741
4.333742
1.298278
6.185517
2.965927
6.282616
2.090623
3.559129
4.197276
2.512348
5.969630
3.083962
3.706950
5.896308
5.008337
1.226375
5.543285
1.349174
3.530108
6.170050
6.515320
2.422760
2.663987
6.364172
2.760734
2.531248
2.847817
3.296823
1.863657
2.023322
2.437209
3.701788
1.777604
2.267739
1.386557
2.227853
2.265850
1.627570
2.006081
2.178803
2.215300
3.913926
3.066086
1.830490
2.001881
2.824572
3.411897
2.255099
2.569074
2.250252
3.241100
3.633179
4.928366
2.464081
3.056311
4.833915
5.237199
1.908538
2.193434
1.584278
3.999154
1.347373
2.308320
1.272500
2.485904
2.583209
0.569647
6.537580
1.950518
3.312728
1.590612
0.912783
3.002125
1.853992
3.077701
2.140602
6.551784
2.310357
6.553501
2.685982
2.319201
1.798585
3.353357
1.573860
2.688451
1.823051
2.065201
1.748051
2.936014
3.858620
4.002162
1.869879
2.345387
5.589440
2.481924
2.983872
3.346959
1.885341
4.237950
4.530456
2.126077
1.901286
2.198750
1.582340
3.640404
5.603394
2.564736
1.318902
3.065514
6.331818
4.624301
3.070983
1.231431
5.340062
2.973846
1.780291
2.784315
6.583937
1.341089
6.309795
2.467092
3.443371
2.938760
2.534674
6.709384
1.464124
6.577416
3.006501
3.570001
2.201481
2.525099
2.432502
3.770124
1.573957
2.177016
2.013290
3.961054
1.474598
5.972573
1.771245
5.450614
3.819615
4.682807
2.391218
4.421710
3.083539
5.623077
1.575088
4.751166
5.183243
3.439374
6.045183
2.812464
2.610332
1.751224
4.965272
2.069815
5.113738
2.709330
5.693289
4.065109
5.206117
4.204178
3.552879
6.141511
2.794789
1.892610
1.059730
4.652540
2.618597
6.347252
1.763659
6.510250
3.978530
3.388390
6.174431
2.131767
2.629570
3.206488
5.957946
3.396702
1.054027
5.357668
1.124853
5.892970
6.378807
3.176482
2.139432
6.810382
6.569403
2.321205
2.460264
2.767813
3.348420
2.683638
1.984710
1.826451
2.368874
1.511719
3.937659
1.455272
2.306165
2.212833
2.106815
2.041110
2.108263
2.017105
2.868488
3.935762
2.046860
1.685470
2.064646
3.551844
2.133552
2.669366
2.885019
3.478877
3.340044
4.832306
3.136447
2.340145
5.221373
4.702237
2.386532
1.846426
4.291338
1.307546
2.176836
1.330464
2.318737
1.339033
0.940284
2.513470
1.783290
6.878602
1.686996
3.242384
2.990422
0.898609
3.281379
1.732066
6.891038
2.039827
6.873726
2.097822
1.929755
1.784539
2.512539
3.625014
1.361357
0.551072
1.943907
2.015876
3.186366
1.575984
3.864242
3.566256
3.955114
3.714655
2.448299
5.339465
2.140980
2.163417
1.959545
1.908815
1.835130
1.902589
4.941851
2.195483
2.232763
3.963718
1.978794
4.116104
1.997473
4.086258
0.960459
3.460372
1.610141
5.323682
1.915128
1.557483
3.826613
6.075667
3.232560
1.540717
2.986384
5.944343
2.589744
6.509945
3.671741
2.833608
1.369807
2.506735
6.329460
3.101564
6.666810
3.802463
2.323635
1.500884
3.412524
1.917669
3.877178
1.776366
1.952768
3.292564
2.461372
2.423911
6.282817
3.351611
5.703072
2.750221
3.108760
1.602418
4.429767
1.768165
4.703779
1.536084
5.498105
2.721824
1.293693
3.904565
1.987013
5.299230
2.834664
1.943666
2.195452
5.174052
1.672218
4.669023
0.390720
3.747645
1.194569
3.104771
4.675872
1.086610
2.043436
4.338129
5.850503
3.231959
5.786715
2.463071
6.523308
3.496944
1.943699
3.134464
2.803120
5.987583
1.674639
2.410030
1.263358
4.655532
6.136035
3.463682
6.351049
3.609809
1.847080
5.351464
6.613919
3.564361
3.069965
6.276112
3.019027
2.106317
1.957964
3.202852
2.893390
2.142388
2.499840
5.218152
2.566552
1.890074
3.082783
2.116108
2.933712
2.825570
3.421637
1.905354
3.480593
1.768819
2.416227
2.061084
4.324918
1.901160
3.917003
1.860106
2.611674
2.127199
2.674137
2.139633
1.881759
3.624098
1.516540
2.582451
2.157620
4.491056
2.884249
5.632170
4.527841
2.080476
3.589928
1.758100
1.757223
4.063723
6.808754
3.953035
1.431584
3.219986
3.555754
1.668399
2.248710
4.771138
4.008076
6.878555
3.894659
6.830130
1.724894
4.996692
2.539812
5.447719
2.895478
1.945061
4.616754
2.163996
2.510184
5.102896
2.215454
1.538787
2.486267
1.232718
2.336423
2.283072
1.142475
1.835849
1.976589
1.966593
2.040118
3.318607
2.518277
2.108403
1.457158
2.242490
2.246439
2.946998
2.050833
2.200664
3.771990
2.421718
3.539118
1.418406
3.853678
2.263959
2.286170
4.490200
3.861627
3.402065
1.554068
0.832891
2.352442
2.858163
2.786772
4.215815
3.285199
3.508470
1.188037
1.782875
2.258073
1.245632
0.988936
2.066623
2.344531
1.995625
4.263452
2.202193
4.804754
2.623268
2.433777
2.169492
2.148562
2.624657
4.773635
5.245229
5.010411
3.293753
1.222400
2.419385
2.695544
2.267606
2.449248
2.289132
2.044781
2.264881
3.780100
2.005795
2.338969
2.452886
2.104815
2.317894
2.559815
5.069017
3.321693
4.700278
2.939978
2.759099
2.194240
1.949396
4.358353
1.644330
1.958205
2.417734
1.003620
2.153839
2.282930
2.087892
2.669287
0.325680
1.059185
2.878082
2.453928
1.608744
4.444914
5.154701
3.591285
4.350068
2.911288
2.092937
2.231091
1.716159
0.206909
2.347751
1.427487
2.358328
2.207960
1.940359
2.278205
5.314011
1.959086
5.251343
5.750118
2.626462
2.946229
2.167748
4.166219
5.188972
2.518300
2.216807
3.232060
0.682736
1.994231
1.521836
1.719994
2.247148
2.528551
3.639547
2.103879
3.216307
2.282507
2.613115
2.107658
2.037914
5.669063
5.455779
2.664087
2.880989
1.447324
0.672369
3.594262
3.661737
2.361608
5.227645
3.270183
4.568508
4.322634
2.719692
2.437188
3.260569
1.397026
1.505748
2.323674
2.224933
2.062649
2.186778
2.228979
1.826237
2.403451
1.643921
2.271150
2.218398
2.040753
4.084429
3.983323
1.088023
3.571397
4.982265
1.229711
3.912258
2.380367
1.979235
1.666911
2.256737
1.688157
2.446180
2.343721
2.064332
1.952685
0.655614
2.200988
3.289347
2.503957
2.203732
2.786731
2.239607
2.205120
5.999028
5.882398
2.441025
2.251444
2.683194
4.270966
2.665379
5.117921
2.415382
4.641172
2.363052
3.437292
2.880498
2.348146
2.322538
4.530168
3.946959
5.491518
1.091711
2.334095
2.425972
1.323382
2.248149
5.311445
2.230138
5.777736
3.001041
2.684090
4.652468
4.422967
2.955463
3.993946
5.612605
5.000704
2.242446
2.330772
2.343284
3.750660
3.031240
2.078204
4.979629
5.033566
2.314651
1.640394
2.423071
2.246677
3.688335
2.232383
2.421257
2.138841
2.062275
2.367199
6.139218
5.895847
1.785898
3.692568
2.396088
4.287042
2.616977
1.964361
5.737045
1.803615
2.186045
5.910961
5.421216
3.754445
2.316322
1.808719
1.390366
2.431150
4.494974
1.638573
3.495918
1.468734
3.169464
2.159854
2.388589
3.419955
1.843722
2.524440
2.189729
2.160405
0.817229
2.297625
0.851379
1.879152
4.469905
2.163601
2.488621
5.095784
3.775516
4.219428
4.753126
2.290248
3.478406
4.118500
2.769156
4.806329
1.703981
3.013171
2.337512
2.349062
5.622614
2.306811
2.270668
2.811853
0.314255
2.850512
2.229919
2.379027
1.457563
2.186398
2.608777
3.975184
5.059047
3.024223
2.309879
1.360904
1.709605
2.241360
5.775995
3.105602
2.020388
1.757615
2.333727
0.615342
2.298799
1.772634
1.793612
2.375068
2.399701
1.306046
2.424240
2.223815
4.446079
2.591296
3.949443
3.998073
1.945513
2.288303
2.977191
3.834955
1.857703
2.228729
2.322272
4.183938
3.129621
1.802519
3.145001
4.780612
2.894553
2.410693
2.043287
2.320854
2.305070
3.244725
1.837611
2.474493
2.761556
2.058078
1.864363
2.017442
5.000662
1.945655
3.019494
1.038386
4.474563
2.918621
2.484559
2.107956
0.961940
2.204542
1.713369
3.147558
3.471400
3.901632
3.987555
0.345711
1.248154
2.281562
1.894759
2.333560
0.653840
2.112892
2.463825
3.329875
0.833021
4.534362
3.969700
2.221592
2.165545
1.925501
5.722774
2.537424
3.984019
2.297179
2.150248
4.555449
3.260348
2.436944
2.249157
3.816310
2.601386
1.091605
3.234489
3.520237
1.319366
2.067288
1.924976
2.099265
2.076879
5.986037
1.685328
2.381872
2.516034
0.873862
2.668540
2.249549
2.557926
2.620057
2.395881
4.758209
4.208394
2.407806
2.330625
2.247813
0.712446
1.384817
1.767840
1.806808
1.635042
1.748134
1.692159
1.573801
1.858265
2.219545
2.247517
2.529439
2.366242
1.934862
2.057340
2.343183
1.530038
1.848947
3.570679
2.535979
3.132366
3.610380
3.651212
2.787870
3.697067
3.563726
3.260442
3.564357
2.875057
3.253296
3.448800
2.766885
3.069828
3.188251
2.654195
2.150292
2.049359
3.881918
3.772142
3.457283
3.116564
3.236842
2.623974
2.571889
0.934974
2.342163
2.744342
2.517005
3.316878
2.060633
2.653586
0.285957
1.099540
1.224276
2.022128
1.886194
1.992936
2.406620
1.986514
1.819965
3.759494
1.905326
3.332420
1.067762
2.114844
2.958188
1.310702
0.860873
0.525507
0.735380
2.790389
1.748850
4.493008
5.226862
4.608998
3.770456
2.806298
2.950664
2.745334
2.647242
4.557352
5.115771
4.824505
2.699612
2.064063
1.723324
1.936060
2.365046
1.543965
3.320807
2.342323
0.529812
1.383113
2.220617
2.932885
1.707372
1.986750
2.062694
2.295946
2.091724
2.669864
1.604340
2.050237
1.580934
1.629782
2.206559
2.820402
2.050725
3.009590
1.711224
2.921726
2.851734
3.548277
2.805021
3.438249
2.218662
2.742582
2.316909
2.294505
1.685467
2.359570
1.586922
1.463687
5.773128
1.980631
1.852333
1.776861
0.701173
3.359738
3.573207
3.456462
3.839573
2.606888
3.711562
2.902965
2.539981
1.759862
1.870764
1.991754
2.134647
2.073758
1.715951
2.046652
2.298040
1.881275
2.166460
2.352958
4.545012
2.994163
1.897906
1.385517
2.186740
1.875541
1.822659
2.791102
1.690391
1.082026
3.200888
2.979600
2.040111
2.238949
2.490018
4.578529
1.737402
1.753570
1.723166
1.671374
1.662195
2.314843
3.570158
3.677415
4.776631
0.500685
3.376176
2.136706
2.528572
2.144693
2.117016
2.549695
1.746298
1.812552
1.878217
1.748429
1.863661
1.828955
1.761765
2.022743
3.230745
3.897007
3.724639
2.378246
2.752024
3.635469
3.475601
3.643732
1.924464
3.857085
3.382820
4.284240
4.202460
2.920202
1.080898
2.378196
2.132839
2.197862
1.706605
1.999626
1.659860
1.752836
0.527194
2.172443
2.235521
4.592735
0.352038
2.543596
0.353647
1.238614
0.975506
1.196349
0.482906
2.318526
1.897980
1.891989
1.507322
0.962566
1.259339
3.227572
4.310006
3.372220
1.864460
4.645620
2.633770
1.770787
3.658622
2.690302
2.679826
1.742729
3.343452
3.084384
0.993422
1.822350
1.094162
3.061078
1.881131
0.933022
1.058369
0.908183
3.354337
2.071598
3.090013
2.617724
1.939892
1.790821
1.661958
1.458391
1.753595
1.978442
2.492522
2.094490
2.382253
3.504365
2.485768
2.999804
3.902296
5.824454
5.816467
4.902780
5.861123
4.887355
5.732942
5.917015
5.730055
3.779554
3.835787
3.440728
3.399241
3.786869
3.887367
3.910957
2.308567
2.155298
2.019008
1.867324
1.908438
1.769726
1.747666
1.787311
1.587144
2.406916
2.543500
2.357320
2.300109
5.096733
4.328824
5.227929
4.491815
3.632564
3.060934
4.627165
1.773382
2.588951
3.913430
4.496591
3.370939
4.632834
1.679608
1.888969
1.475776
1.487472
1.783598
1.915532
2.429286
1.891213
2.146665
2.173772
1.954732
2.865467
2.764271
2.496692
3.323591
3.187264
1.838354
2.981539
0.561012
1.753390
2.557295
2.131104
1.061427
0.832146
3.753481
1.524932
2.363331
1.082630
0.969590
1.621404
2.471718
2.274891
1.675276
2.481042
2.636932
1.573934
1.582469
3.162622
1.633860
1.628109
1.161662
1.249723
2.491447
2.743990
1.618861
1.484210
1.911847
1.732256
1.860806
2.396913
1.445645
2.043326
2.242834
1.643750
1.802710
1.659391
0.729754
0.804060
0.114960
1.429600
1.896816
2.681856
3.326027
2.987335
2.870170
1.739274
1.858889
1.632432
1.785817
2.059132
2.244130
0.581014
0.575366
2.860215
2.131954
2.631853
4.997067
2.881672
1.902150
1.705523
1.814967
2.072929
2.045988
3.377366
2.226974
3.172626
3.530664
4.035666
3.646178
1.822648
1.955671
1.842104
1.863579
1.404421
2.210591
0.735463
1.844195
0.797893
1.067634
0.269211
0.656107
1.945925
2.352396
2.096269
1.738960
1.978970
3.556059
1.537108
1.417507
1.901706
1.690871
2.048463
1.904432
2.035317
2.135927
2.097865
2.121124
2.019201
2.075551
2.366414
1.017117
2.004537
1.905084
1.926520
3.868876
1.878834
2.118038
1.887451
2.053431
2.721817
1.992383
1.933771
4.056765
4.260082
3.227490
3.081308
1.676714
1.773436
1.691308
3.239449
1.879865
4.924218
1.971098
1.949346
3.099124
0.330851
0.947109
0.372509
2.155929
1.770790
1.655505
4.944479
1.187027
1.900798
1.889946
1.850505
2.071595
1.040266
1.146493
2.305549
2.173745
1.979704
1.970862
2.027906
0.964132
4.418969
2.132047
2.146191
2.369071
2.180114
3.745069
1.842218
1.748170
1.732713
2.465931
1.822996
1.777063
1.354945
1.345275
2.352481
3.040300
2.254513
2.855903
2.119454
2.498807
3.024733
3.266412
1.809066
1.776366
2.268679
2.186812
2.747318
3.284147
2.920017
4.261250
3.409554
3.642606
3.196224
2.601135
3.279023
3.513634
2.765042
2.197777
1.892684
2.120839
1.435066
1.601269
1.590489
1.918979
1.380615
1.140510
0.850048
2.793451
1.252625
2.985508
2.039450
1.907600
1.673383
1.881396
1.979715
1.315638
1.461145
1.530784
1.664853
0.604623
1.064860
0.943521
1.213857
1.452599
1.828171
3.027727
1.582352
1.578663
1.788045
1.988904
2.301530
1.628980
1.866631
2.134908
1.835508
1.850073
0.934146
3.008988
3.114352
1.968316
1.942869
2.133531
3.997123
5.024204
4.126866
4.022916
2.561729
3.400960
2.414492
1.809882
1.615441
2.167474
4.367058
2.094793
2.191816
2.022548
1.965219
2.002334
3.830086
3.389704
3.884851
3.916895
3.791494
1.930299
2.155234
1.047018
0.516534
1.936099
2.000045
2.176590
2.221499
3.625070
4.290638
4.165626
3.307591
1.907079
1.864678
3.990433
2.052859
2.414373
1.603346
4.008221
2.105460
2.141980
4.946222
1.300164
1.623402
2.610616
3.200988
2.492611
2.020522
1.988363
2.036553
2.049350
2.114564
5.129165
5.012607
1.992764
1.936459
2.649947
1.882816
1.832944
2.997023
3.059826
1.649258
2.338128
1.869172
1.768798
2.252380
2.232663
2.447184
1.584065
1.502871
1.488346
2.892268
2.751985
2.070267
2.379907
2.222058
2.302351
4.048479
2.892436
3.020561
1.991994
2.091108
2.534278
2.793046
2.248010
2.356207
1.253188
1.506808
3.783197
1.953717
2.235188
1.995686
2.169978
1.886980
3.957734
3.830032
1.611137
4.316157
4.184091
1.700556
1.759747
1.760363
1.799659
1.604105
1.612167
1.780404
1.799669
2.170619
2.241787
1.964777
1.979046
2.071648
1.917848
0.421373
1.029522
2.168507
2.433221
2.041912
1.781402
1.743324
4.132172
1.852397
4.086056
4.244330
3.900034
2.833717
2.146747
1.880854
2.091524
1.236113
1.977173
1.281290
0.813768
0.943407
0.398032
2.247025
2.004604
2.099072
1.908458
2.162157
2.086347
1.846841
1.629368
1.947909
0.825604
5.013631
4.886326
3.499168
1.607607
4.921911
3.087801
2.330243
2.619803
4.952946
4.040793
1.847275
1.901087
4.932695
1.935033
1.862648
2.534149
1.305032
1.344507
1.908500
1.773005
4.784066
3.399905
1.902182
1.506384
1.616905
2.077551
0.926069
0.862168
2.433234
2.055560
2.209240
1.840610
1.892231
3.230754
1.451560
1.703748
0.952926
1.157531
0.969849
2.082736
4.181662
2.920841
2.864554
1.708611
1.711695
2.585400
2.648307
2.526039
2.079590
2.934766
2.377753
2.160590
2.192652
2.146960
2.765702
2.476851
2.434702
2.128932
2.545785
2.294917
2.526660
2.225872
2.119323
2.078120
2.307891
2.168966
2.204998
2.891228
3.042515
2.990107
2.940808
2.480538
2.975545
3.132602
2.963171
2.782780
2.886603
2.307678
2.330548
2.381884
2.262230
2.042449
2.274307
2.096102
2.695998
2.690310
2.351689
1.834933
1.916970
1.793414
2.446592
0.598554
0.379360
0.926447
1.267360
1.945967
2.026245
1.971678
1.930724
2.043724
1.808930
2.468102
2.475326
1.881481
1.812069
1.978762
1.909073
1.928202
0.290130
0.553403
0.407299
0.679565
2.835992
2.628533
1.355746
0.717192
1.044087
0.733246
1.638664
2.059650
1.691276
1.939580
1.978657
1.416354
2.151022
1.453736
1.208202
1.219861
1.468179
1.527928
1.768107
1.843421
2.261122
1.805715
1.536179
1.420052
1.743299
1.745427
