# vtk DataFile Version 2.0
Unstructured Grid Example
ASCII
DATASET UNSTRUCTURED_GRID
POINTS 2044 float
1.022979 -0.002000 0.099316 
-0.305193 0.999910 0.014644 
-0.997304 -0.012075 -0.106621 
-0.322551 -0.990148 0.000899 
0.192646 -0.000172 0.995717 
1.009743 -0.126351 0.096317 
0.981770 -0.252080 0.095954 
0.946924 -0.373711 0.099545 
0.887642 -0.487063 0.094612 
0.821991 -0.591985 0.090083 
0.739621 -0.689275 0.087665 
0.647573 -0.774133 0.081952 
0.547198 -0.846265 0.073587 
0.442336 -0.907931 0.064458 
0.332545 -0.957171 0.053640 
0.219190 -0.993189 0.044330 
0.107721 -1.014647 0.034600 
-0.005851 -1.024255 0.023430 
-0.114415 -1.025274 0.016971 
-0.220484 -1.009989 0.008831 
-0.417225 -0.958158 -0.005008 
-0.506726 -0.916723 -0.013418 
-0.591247 -0.873890 -0.019813 
-0.664831 -0.819994 -0.025902 
-0.731550 -0.763085 -0.034512 
-0.791459 -0.702546 -0.041738 
-0.840265 -0.636077 -0.049946 
-0.882470 -0.569126 -0.061432 
-0.916536 -0.499194 -0.071914 
-0.944529 -0.427292 -0.075832 
-0.964847 -0.357936 -0.084486 
-0.978636 -0.287194 -0.091041 
-0.988285 -0.216740 -0.098062 
-0.995994 -0.147387 -0.103605 
-1.001100 -0.080248 -0.102968 
-0.998848 0.055569 -0.105312 
-0.994216 0.122991 -0.102600 
-0.989288 0.193806 -0.099030 
-0.980150 0.265706 -0.092577 
-0.962587 0.337891 -0.086143 
-0.935553 0.408388 -0.083092 
-0.907556 0.480218 -0.075628 
-0.872109 0.550084 -0.064206 
-0.828442 0.620148 -0.058480 
-0.776284 0.688505 -0.050503 
-0.717836 0.755846 -0.036652 
-0.650605 0.815701 -0.022805 
-0.575894 0.873752 -0.015436 
-0.493603 0.921639 -0.004703 
-0.402113 0.963183 0.003526 
-0.201895 1.025160 0.023225 
-0.095571 1.036365 0.029732 
0.013320 1.033228 0.037981 
0.126367 1.020527 0.048878 
0.235813 0.996083 0.052264 
0.347218 0.959746 0.059373 
0.456436 0.909912 0.067290 
0.558061 0.846412 0.071722 
0.652284 0.768354 0.074379 
0.744482 0.684554 0.080246 
0.821809 0.587397 0.084186 
0.888838 0.482178 0.088725 
0.946263 0.369489 0.091789 
0.988918 0.252048 0.095384 
1.012884 0.128350 0.094928 
1.013954 0.000322 0.180127 
1.007882 -0.001102 0.260928 
0.993650 -0.000022 0.341406 
0.973384 0.003149 0.421547 
0.944085 0.004142 0.501614 
0.914847 0.002667 0.576355 
0.869429 0.001953 0.644178 
0.821587 0.004207 0.713090 
0.764586 0.001802 0.767524 
0.705747 0.003209 0.825631 
0.635588 0.003462 0.871766 
0.553851 0.004212 0.907411 
0.471581 0.002886 0.943665 
0.382368 0.004390 0.969385 
0.289730 0.002332 0.985868 
0.186736 0.097983 0.993055 
0.165471 0.194893 0.980724 
0.133154 0.289375 0.956741 
0.100373 0.379982 0.922767 
0.059579 0.467523 0.880160 
0.013805 0.550296 0.830432 
-0.035247 0.629270 0.774455 
-0.083045 0.700353 0.710528 
-0.129756 0.766662 0.639076 
-0.173348 0.824868 0.560988 
-0.214491 0.875635 0.479322 
-0.251429 0.919678 0.391170 
-0.280976 0.954263 0.298919 
-0.301935 0.979864 0.205057 
-0.309457 0.992689 0.110477 
0.092050 -0.000845 0.998906 
-0.008583 0.000044 0.990507 
-0.109513 0.000943 0.969929 
-0.214372 -0.002212 0.934060 
-0.318194 -0.001774 0.889947 
-0.420620 -0.003781 0.837691 
-0.519658 -0.000148 0.775192 
-0.613276 -0.003042 0.704884 
-0.695336 -0.006389 0.623059 
-0.771770 -0.007773 0.534843 
-0.836596 -0.008688 0.438958 
-0.895672 -0.010319 0.340817 
-0.937829 -0.012121 0.233456 
-0.973656 -0.013714 0.123025 
-0.995809 -0.011133 0.007916 
0.187327 -0.097804 0.989402 
0.169361 -0.191734 0.974856 
0.144779 -0.286166 0.950830 
0.104820 -0.380899 0.922081 
0.060072 -0.465005 0.880019 
0.010382 -0.549663 0.830296 
-0.044112 -0.628844 0.772323 
-0.094957 -0.702297 0.708599 
-0.142384 -0.765074 0.634408 
-0.188794 -0.821632 0.555885 
-0.231984 -0.869808 0.473043 
-0.269058 -0.911627 0.383105 
-0.296791 -0.945280 0.290825 
-0.316868 -0.970070 0.194025 
-0.325891 -0.984618 0.098499 
0.751797 0.548319 0.479351 
0.433212 0.424891 0.857209 
0.122781 0.946142 0.395067 
0.893582 0.407389 0.360649 
0.936898 0.342505 0.295184 
0.967639 0.265975 0.276910 
0.976777 0.253075 0.207122 
0.340769 0.912863 0.352446 
0.609710 0.383631 0.786603 
0.207071 0.741429 0.687498 
0.616279 0.759325 0.322249 
0.777125 0.352608 0.634091 
0.637075 0.763606 0.237774 
0.832244 0.227095 0.635047 
0.232065 0.574370 0.820680 
0.042088 0.869212 0.546891 
0.765828 0.626102 0.264341 
0.882349 0.266607 0.546947 
0.219291 0.438987 0.896303 
-0.093510 0.933045 0.431866 
0.270771 0.849266 0.531355 
0.423933 0.591650 0.755538 
0.176606 0.997171 0.195337 
0.569455 0.185497 0.880027 
0.840865 0.539896 0.218960 
0.925410 0.230548 0.456666 
0.205357 0.351868 0.926507 
-0.168717 0.959151 0.358021 
0.001695 1.027371 0.144045 
0.455821 0.126822 0.942412 
0.908786 0.437805 0.166504 
0.971566 0.127641 0.396360 
0.522483 0.690376 0.592120 
0.222120 0.286877 0.952039 
-0.194629 0.982057 0.294478 
-0.065153 1.032297 0.113736 
0.403782 0.096132 0.958829 
0.995332 0.144970 0.293699 
0.953289 0.342444 0.155082 
1.003298 0.126940 0.213769 
0.671478 0.518341 0.627294 
0.568451 0.753305 0.450895 
0.401819 0.833259 0.475915 
0.555531 0.540750 0.713079 
0.692306 0.667798 0.378099 
0.786830 0.427307 0.565414 
0.677209 0.611591 0.515634 
0.327745 0.729368 0.662620 
0.480803 0.214276 0.915911 
0.061133 1.009702 0.215219 
0.157791 0.976211 0.302583 
0.511647 0.319574 0.871584 
0.228509 0.800914 0.611198 
0.312236 0.671380 0.727132 
0.313839 0.881941 0.447944 
0.521001 0.501014 0.765303 
0.326472 0.514265 0.834421 
0.083735 0.907717 0.482903 
0.262498 0.957863 0.282246 
0.593035 0.294453 0.833237 
0.322221 0.594019 0.786438 
0.155830 0.861182 0.547146 
0.314850 0.442745 0.873975 
0.008082 0.944069 0.423455 
0.809913 0.540186 0.352116 
0.887929 0.347982 0.461712 
0.524370 0.407746 0.826063 
0.230032 0.937446 0.373586 
0.195994 0.906457 0.462225 
0.429959 0.509261 0.812021 
0.108814 0.592688 0.812070 
-0.054972 0.836597 0.580749 
0.089522 0.809031 0.629439 
0.183556 0.662506 0.762189 
0.128804 0.501514 0.867117 
-0.125392 0.885853 0.498613 
0.710519 0.369580 0.698830 
0.509069 0.835969 0.337703 
0.269687 0.982279 0.121994 
0.646778 0.092143 0.853047 
-0.067133 0.968383 0.369460 
0.290468 0.377286 0.909403 
-0.064559 1.018967 0.212644 
0.383736 0.206868 0.951970 
0.350636 0.774929 0.599120 
0.406799 0.658709 0.705792 
0.389489 0.326823 0.908325 
0.010035 0.988297 0.316430 
0.953189 0.262239 0.360403 
0.898221 0.443161 0.257175 
0.221668 0.515456 0.857304 
-0.024046 0.898782 0.497833 
0.174062 1.007071 0.104415 
0.589477 0.070542 0.892367 
0.089296 1.020697 0.123988 
0.525981 0.100613 0.916982 
0.143134 0.429773 0.900283 
-0.172454 0.918073 0.433508 
-0.185975 1.005923 0.216365 
0.276722 0.210332 0.969556 
0.297071 0.294517 0.941781 
-0.115540 0.994723 0.295248 
0.606980 0.597813 0.614693 
0.543129 0.731013 0.514764 
0.464442 0.772586 0.530287 
0.547646 0.609862 0.657761 
0.735693 0.519232 0.542496 
0.693255 0.637867 0.447360 
0.609809 0.652434 0.551852 
0.365993 0.925247 0.269321 
0.661165 0.279402 0.788128 
0.747453 0.619496 0.344065 
0.838234 0.386964 0.522508 
0.620957 0.693983 0.482969 
0.674390 0.560659 0.576644 
0.792573 0.470980 0.515447 
0.733267 0.471640 0.604131 
0.625186 0.723176 0.413602 
0.372415 0.814962 0.531295 
0.489750 0.603567 0.708945 
0.835325 0.471377 0.442329 
0.757270 0.583546 0.409615 
0.921725 0.307495 0.414498 
0.947020 0.339895 0.224710 
0.430801 0.855149 0.401088 
0.629799 0.450739 0.724906 
0.694965 0.451310 0.665978 
0.538728 0.796577 0.397759 
0.436031 0.749123 0.583135 
0.439920 0.689622 0.647159 
0.098719 0.737899 0.703137 
0.492784 0.794503 0.464553 
0.620094 0.534313 0.669307 
0.042343 0.684983 0.743338 
-0.008418 0.761140 0.670252 
0.543653 0.831292 0.266873 
0.763583 0.272514 0.697142 
1.015925 0.107521 0.150683 
0.664280 0.188656 0.824502 
0.317144 0.955839 0.197296 
0.834678 0.105277 0.675119 
0.605364 0.802564 0.148592 
0.827297 0.330887 0.578793 
0.694743 0.691330 0.301507 
0.698561 0.717567 0.174615 
0.881928 0.121696 0.610924 
0.321859 0.099918 0.978956 
-0.163065 1.024363 0.114559 
0.950707 0.104570 0.466442 
0.848318 0.541972 0.149974 
0.786930 0.624713 0.161825 
0.916403 0.126028 0.531042 
0.842111 0.518938 0.290616 
0.694904 0.321224 0.745009 
0.444400 0.880845 0.301452 
-0.245542 1.013140 0.078316 
0.251652 0.064549 0.989867 
0.242343 0.136167 0.985921 
-0.243838 1.005635 0.144732 
0.503368 0.875882 0.136259 
0.781053 0.094602 0.739560 
0.391053 0.938054 0.130987 
0.717420 0.094074 0.797430 
0.565202 0.827358 0.195303 
0.800917 0.172859 0.696867 
0.445721 0.898717 0.214070 
0.729748 0.205384 0.760317 
0.698918 0.703969 0.245307 
-0.416614 0.377585 0.770552 
-0.606571 0.751685 0.328176 
-0.894764 0.258860 0.292757 
-0.228405 0.275165 0.891959 
-0.127885 0.247206 0.931108 
-0.065044 0.186597 0.962241 
0.013812 0.125895 0.984911 
-0.487187 0.701297 0.515975 
-0.778296 0.222662 0.496196 
-0.826489 0.525401 0.241509 
-0.332771 0.558705 0.723532 
-0.555246 0.209752 0.724035 
-0.219294 0.576217 0.759426 
-0.549280 0.132840 0.741406 
-0.755552 0.675389 0.180724 
-0.916711 0.387331 0.153618 
-0.181748 0.475733 0.828923 
-0.381345 0.167142 0.848784 
-0.681320 0.776960 0.115325 
-0.966423 0.290867 0.064434 
-0.817962 0.380412 0.371740 
-0.686025 0.619688 0.388808 
-0.388770 0.844023 0.426777 
-0.867655 0.096307 0.386329 
-0.093263 0.407455 0.881380 
-0.281079 0.129946 0.900894 
-0.624750 0.832571 0.075278 
-0.982682 0.233002 0.007917 
-0.393953 0.916956 0.287039 
-0.943502 0.063045 0.224672 
-0.183988 0.074821 0.939790 
0.017192 0.340872 0.932096 
-0.646185 0.459292 0.554531 
-0.571501 0.873050 0.073614 
-0.990263 0.183526 -0.001983 
-0.381049 0.941487 0.230205 
-0.965157 0.043549 0.157063 
-0.056883 0.099456 0.973294 
0.045015 0.210974 0.967349 
0.030890 0.057100 0.990649 
-0.488477 0.525874 0.648310 
-0.614514 0.320639 0.645525 
-0.585536 0.601440 0.516440 
-0.743708 0.335614 0.505149 
-0.482610 0.262903 0.764803 
-0.355149 0.477352 0.760635 
-0.505663 0.403472 0.702344 
-0.769233 0.508792 0.360151 
-0.448485 0.866497 0.327985 
-0.918913 0.113797 0.277613 
-0.507121 0.797730 0.386062 
-0.877096 0.181787 0.349303 
[...]
POINT_DATA 2044
SCALARS u float 1
LOOKUP_TABLE default
2.157875
6.466533
2.271673
6.829686
4.078174
2.147037
2.362023
2.756965
3.078594
3.428839
3.902357
4.336200
4.748988
5.151354
5.535838
5.909049
6.171768
6.446389
6.627429
6.750633
6.801838
6.739364
6.620928
6.386835
6.097021
5.757501
5.338561
4.898212
4.441922
3.958753
3.470362
3.023191
2.677691
2.435329
2.214972
2.404312
2.669130
3.005098
3.374354
3.771195
4.200942
4.617052
5.008507
5.372566
5.667216
5.909673
6.134076
6.304293
6.441313
6.471849
6.397884
6.294549
6.132877
5.889068
5.649810
5.328569
4.960627
4.576738
4.128480
3.704785
3.289411
2.917193
2.575799
2.357530
2.142129
1.782609
1.506971
1.331997
1.333668
1.465443
1.819476
2.051493
2.427795
2.758106
3.181470
3.482361
3.640402
3.847719
3.971958
4.062506
3.952338
3.502027
2.818151
2.125192
1.264149
0.313527
0.754424
1.764845
2.751222
3.673189
4.544543
5.325026
5.949644
6.393656
6.554867
4.023395
3.952593
3.835777
3.568967
3.247050
2.860244
2.428691
1.987427
1.666807
1.347541
1.193881
1.090500
1.294579
1.559879
1.921448
3.966482
3.587259
3.068071
2.219056
1.279167
0.254023
0.941059
2.012492
3.018089
4.001073
4.916532
5.700256
6.286144
6.710068
6.900785
2.234838
2.279382
4.910307
2.032160
1.980939
1.850478
1.982921
4.608806
2.336721
1.995629
3.653676
1.810600
3.915477
1.794880
0.981004
3.707315
3.187137
1.776700
1.814007
4.927479
3.459480
1.623916
5.741393
3.169465
2.896564
1.557380
2.420106
5.540260
6.190193
3.683134
2.655252
1.465587
2.438274
2.903805
5.954963
6.304228
3.801005
1.609856
2.390415
1.756194
1.968124
3.241790
3.581340
1.894999
3.037569
1.837475
2.412180
2.119723
3.290465
5.959373
5.383114
2.744794
2.773466
1.535710
4.022543
1.907762
1.509416
4.263150
5.198506
2.675241
1.310129
3.524524
1.953757
4.885229
2.522137
1.837545
2.365636
4.811093
4.220678
1.841162
0.439956
3.406556
2.767405
1.096462
1.117859
4.315663
1.994580
4.092195
5.566149
3.153522
5.380941
2.372588
6.184556
3.488261
2.682474
1.790039
2.730200
5.613379
1.713450
2.403541
1.231785
4.255137
5.822548
3.509086
6.016593
3.622915
1.751514
4.951248
6.324770
3.527000
2.969705
5.885030
2.092009
2.895301
3.022361
2.017128
2.024489
2.697011
2.447246
4.953952
2.430911
2.915121
1.826108
2.866280
2.051645
1.988405
1.958458
3.210397
3.236112
1.837192
2.169140
2.547404
1.752741
2.152371
3.984465
2.056332
2.013427
3.638148
2.670652
2.112197
1.843478
3.400997
2.014264
1.217640
2.274574
4.258613
1.993988
1.972348
2.875564
5.352008
2.011827
4.303827
1.688956
3.377575
3.786394
1.838685
3.899725
6.441054
1.449173
3.044493
3.371069
1.502784
2.596486
2.207492
4.515976
6.499061
4.047096
3.825121
6.485894
4.757650
2.378325
5.181416
2.755194
4.387484
2.058166
4.850969
2.386664
3.600478
1.826253
5.466539
2.703661
2.382157
2.720985
3.195695
3.702252
4.017381
2.149442
4.571085
1.772517
2.245666
1.236635
2.260008
5.623995
3.909557
1.064033
2.665508
6.156418
3.406525
3.270807
4.573618
5.069991
1.550050
1.604348
3.058258
6.322742
3.119288
6.006689
1.623760
3.548144
2.313985
2.952905
6.427429
2.838838
6.287561
1.691233
3.741136
3.244866
3.969331
2.494967
2.280303
3.683248
2.654270
2.197046
1.593119
2.083312
4.114658
5.709575
1.863823
5.252848
2.116624
4.687054
3.952963
4.298324
2.708362
5.567710
3.362060
4.541717
1.877914
3.664441
5.174506
3.138165
5.912832
1.696196
2.293914
2.410126
4.837812
3.008183
5.060409
4.279612
5.681683
4.397497
5.234346
5.991536
3.854437
1.981423
2.631741
4.333742
1.298278
6.185517
2.965927
6.282616
2.090623
3.559129
4.197276
2.512348
5.969630
3.083962
3.706950
5.896308
5.008337
1.226375
5.543285
1.349174
3.530108
6.170050
6.515320
2.422760
2.663987
6.364172
2.760734
2.531248
2.847817
3.296823
1.863657
2.023322
2.437209
3.701788
1.777604
2.267739
1.386557
2.227853
2.265850
1.627570
2.006081
2.178803
2.215300
3.913926
3.066086
1.830490
2.001881
2.824572
3.411897
2.255099
2.569074
2.250252
3.241100
3.633179
4.928366
2.464081
3.056311
4.833915
5.237199
1.908538
2.193434
1.584278
3.999154
1.347373
2.308320
1.272500
2.485904
2.583209
0.569647
6.537580
1.950518
3.312728
1.590612
0.912783
3.002125
1.853992
3.077701
2.140602
6.551784
2.310357
6.553501
2.685982
2.319201
1.798585
3.353357
1.573860
2.688451
1.823051
2.065201
1.748051
2.936014
3.858620
4.002162
1.869879
2.345387
5.589440
2.481924
2.983872
3.346959
1.885341
4.237950
4.530456
2.126077
1.901286
2.198750
1.582340
3.640404
5.603394
2.564736
1.318902
3.065514
6.331818
4.624301
3.070983
1.231431
5.340062
2.973846
1.780291
2.784315
6.583937
1.341089
6.309795
2.467092
3.443371
2.938760
2.534674
6.709384
1.464124
6.577416
3.006501
3.570001
2.201481
2.525099
2.432502
3.770124
1.573957
2.177016
2.013290
3.961054
1.474598
5.972573
1.771245
5.450614
3.819615
4.682807
2.391218
4.421710
3.083539
5.623077
1.575088
4.751166
5.183243
3.439374
6.045183
2.812464
2.610332
1.751224
4.965272
2.069815
5.113738
2.709330
5.693289
4.065109
5.206117
4.204178
3.552879
6.141511
2.794789
1.892610
1.059730
4.652540
2.618597
6.347252
1.763659
6.510250
3.978530
3.388390
6.174431
2.131767
2.629570
3.206488
5.957946
3.396702
1.054027
5.357668
1.124853
5.892970
6.378807
3.176482
2.139432
6.810382
6.569403
2.321205
2.460264
2.767813
3.348420
2.683638
1.984710
1.826451
2.368874
1.511719
3.937659
1.455272
2.306165
2.212833
2.106815
2.041110
2.108263
2.017105
2.868488
3.935762
2.046860
1.685470
2.064646
3.551844
2.133552
2.669366
2.885019
3.478877
3.340044
4.832306
3.136447
2.340145
5.221373
4.702237
2.386532
1.846426
4.291338
1.307546
2.176836
1.330464
2.318737
1.339033
0.940284
2.513470
1.783290
6.878602
1.686996
3.242384
2.990422
0.898609
3.281379
1.732066
6.891038
2.039827
6.873726
2.097822
1.929755
1.784539
2.512539
3.625014
1.361357
0.551072
1.943907
2.015876
3.186366
1.575984
3.864242
3.566256
3.955114
3.714655
2.448299
5.339465
2.140980
2.163417
1.959545
1.908815
1.835130
1.902589
4.941851
2.195483
2.232763
3.963718
1.978794
4.116104
1.997473
4.086258
0.960459
3.460372
1.610141
5.323682
1.915128
1.557483
3.826613
6.075667
3.232560
1.540717
2.986384
5.944343
2.589744
6.509945
3.671741
2.833608
1.369807
2.506735
6.329460
3.101564
6.666810
3.802463
2.323635
1.500884
3.412524
1.917669
3.877178
1.776366
1.952768
3.292564
2.461372
2.423911
6.282817
3.351611
5.703072
2.750221
3.108760
1.602418
4.429767
1.768165
4.703779
1.536084
5.498105
2.721824
1.293693
3.904565
1.987013
5.299230
2.834664
1.943666
2.195452
5.174052
1.672218
4.669023
0.390720
3.747645
1.194569
3.104771
4.675872
1.086610
2.043436
4.338129
5.850503
3.231959
5.786715
2.463071
6.523308
3.496944
1.943699
3.134464
2.803120
5.987583
1.674639
2.410030
1.263358
4.655532
6.136035
3.463682
6.351049
3.609809
1.847080
5.351464
6.613919
3.564361
3.069965
6.276112
3.019027
2.106317
1.957964
3.202852
2.893390
2.142388
2.499840
5.218152
2.566552
1.890074
3.082783
2.116108
2.933712
2.825570
3.421637
1.905354
3.480593
1.768819
2.416227
2.061084
4.324918
1.901160
3.917003
1.860106
2.611674
2.127199
2.674137
2.139633
1.881759
3.624098
1.516540
2.582451
2.157620
4.491056
2.884249
5.632170
4.527841
2.080476
3.589928
1.758100
1.757223
4.063723
6.808754
3.953035
1.431584
3.219986
3.555754
1.668399
2.248710
4.771138
4.008076
6.878555
3.894659
6.830130
1.724894
4.996692
2.539812
5.447719
2.895478
1.945061
4.616754
2.163996
2.510184
5.102896
2.215454
1.538787
2.486267
1.232718
2.336423
2.283072
1.142475
1.835849
1.976589
1.966593
2.040118
3.318607
2.518277
2.108403
1.457158
2.242490
2.246439
2.946998
2.050833
2.200664
3.771990
2.421718
3.539118
1.418406
3.853678
2.263959
2.286170
4.490200
3.861627
3.402065
1.554068
0.832891
2.352442
2.858163
2.786772
4.215815
3.285199
3.508470
1.188037
1.782875
2.258073
1.245632
0.988936
2.066623
2.344531
1.995625
4.263452
2.202193
4.804754
2.623268
2.433777
2.169492
2.148562
2.624657
4.773635
5.245229
5.010411
3.293753
1.222400
2.419385
2.695544
2.267606
2.449248
2.289132
2.044781
2.264881
3.780100
2.005795
2.338969
2.452886
2.104815
2.317894
2.559815
5.069017
3.321693
4.700278
2.939978
2.759099
2.194240
1.949396
4.358353
1.644330
1.958205
2.417734
1.003620
2.153839
2.282930
2.087892
2.669287
0.325680
1.059185
2.878082
2.453928
1.608744
4.444914
5.154701
3.591285
4.350068
2.911288
2.092937
2.231091
1.716159
0.206909
2.347751
1.427487
2.358328
2.207960
1.940359
2.278205
5.314011
1.959086
5.251343
5.750118
2.626462
2.946229
2.167748
4.166219
5.188972
2.518300
2.216807
3.232060
0.682736
1.994231
1.521836
1.719994
2.247148
2.528551
3.639547
2.103879
3.216307
2.282507
2.613115
2.107658
2.037914
5.669063
5.455779
2.664087
2.880989
1.447324
0.672369
3.594262
3.661737
2.361608
5.227645
3.270183
4.568508
4.322634
2.719692
2.437188
3.260569
1.397026
1.505748
2.323674
2.224933
2.062649
2.186778
2.228979
1.826237
2.403451
1.643921
2.271150
2.218398
2.040753
4.084429
3.983323
1.088023
3.571397
4.982265
1.229711
3.912258
2.380367
1.979235
1.666911
2.256737
1.688157
2.446180
2.343721
2.064332
1.952685
0.655614
2.200988
3.289347
2.503957
2.203732
2.786731
2.239607
2.205120
5.999028
5.882398
2.441025
2.251444
2.683194
4.270966
2.665379
5.117921
2.415382
4.641172
2.363052
3.437292
2.880498
2.348146
2.322538
4.530168
3.946959
5.491518
1.091711
2.334095
2.425972
1.323382
2.248149
5.311445
2.230138
5.777736
3.001041
2.684090
4.652468
4.422967
2.955463
3.993946
5.612605
5.000704
2.242446
2.330772
2.343284
3.750660
3.031240
2.078204
4.979629
5.033566
2.314651
1.640394
2.423071
2.246677
3.688335
2.232383
2.421257
2.138841
2.062275
2.367199
6.139218
5.895847
1.785898
3.692568
2.396088
4.287042
2.616977
1.964361
5.737045
1.803615
2.186045
5.910961
5.421216
3.754445
2.316322
1.808719
1.390366
2.431150
4.494974
1.638573
3.495918
1.468734
3.169464
2.159854
2.388589
3.419955
1.843722
2.524440
2.189729
2.160405
0.817229
2.297625
0.851379
1.879152
4.469905
2.163601
2.488621
5.095784
3.775516
4.219428
4.753126
2.290248
3.478406
4.118500
2.769156
4.806329
1.703981
3.013171
2.337512
2.349062
5.622614
2.306811
2.270668
2.811853
0.314255
2.850512
2.229919
2.379027
1.457563
2.186398
2.608777
3.975184
5.059047
3.024223
2.309879
1.360904
1.709605
2.241360
5.775995
3.105602
2.020388
1.757615
2.333727
0.615342
2.298799
1.772634
1.793612
2.375068
2.399701
1.306046
2.424240
2.223815
4.446079
2.591296
3.949443
3.998073
1.945513
2.288303
2.977191
3.834955
1.857703
2.228729
2.322272
4.183938
3.129621
1.802519
3.145001
4.780612
2.894553
2.410693
2.043287
2.320854
2.305070
3.244725
1.837611
2.474493
2.761556
2.058078
1.864363
2.017442
5.000662
1.945655
3.019494
1.038386
4.474563
2.918621
2.484559
2.107956
0.961940
2.204542
1.713369
3.147558
3.471400
3.901632
3.987555
0.345711
1.248154
2.281562
1.894759
2.333560
0.653840
2.112892
2.463825
3.329875
0.833021
4.534362
3.969700
2.221592
2.165545
1.925501
5.722774
2.537424
3.984019
2.297179
2.150248
4.555449
3.260348
2.436944
2.249157
3.816310
2.601386
1.091605
3.234489
3.520237
1.319366
2.067288
1.924976
2.099265
2.076879
5.986037
1.685328
2.381872
2.516034
0.873862
2.668540
2.249549
2.557926
2.620057
2.395881
4.758209
4.208394
2.407806
2.330625
2.247813
0.712446
1.384817
1.767840
1.806808
1.635042
1.748134
1.692159
1.573801
1.858265
2.219545
2.247517
2.529439
2.366242
1.934862
2.057340
2.343183
1.530038
1.848947
3.570679
2.535979
3.132366
3.610380
3.651212
2.787870
3.697067
3.563726
3.260442
3.564357
2.875057
3.253296
3.448800
2.766885
3.069828
3.188251
2.654195
2.150292
2.049359
3.881918
3.772142
3.457283
3.116564
3.236842
2.623974
2.571889
0.934974
2.342163
2.744342
2.517005
3.316878
2.060633
2.653586
0.285957
1.099540
1.224276
2.022128
1.886194
1.992936
2.406620
1.986514
1.819965
3.759494
1.905326
3.332420
1.067762
2.114844
2.958188
1.310702
0.860873
0.525507
0.735380
2.790389
1.748850
4.493008
5.226862
4.608998
3.770456
2.806298
2.950664
2.745334
2.647242
4.557352
5.115771
4.824505
2.699612
2.064063
1.723324
1.936060
2.365046
1.543965
3.320807
2.342323
0.529812
1.383113
2.220617
2.932885
1.707372
1.986750
2.062694
2.295946
2.091724
2.669864
1.604340
2.050237
1.580934
1.629782
2.206559
2.820402
2.050725
3.009590
1.711224
2.921726
2.851734
3.548277
2.805021
3.438249
2.218662
2.742582
2.316909
2.294505
1.685467
2.359570
1.586922
1.463687
5.773128
1.980631
1.852333
1.776861
0.701173
3.359738
3.573207
3.456462
3.839573
2.606888
3.711562
2.902965
2.539981
1.759862
1.870764
1.991754
2.134647
2.073758
1.715951
2.046652
2.298040
1.881275
2.166460
2.352958
4.545012
2.994163
1.897906
1.385517
2.186740
1.875541
1.822659
2.791102
1.690391
1.082026
3.200888
2.979600
2.040111
2.238949
2.490018
4.578529
1.737402
1.753570
1.723166
1.671374
1.662195
2.314843
3.570158
3.677415
4.776631
0.500685
3.376176
2.136706
2.528572
2.144693
2.117016
2.549695
1.746298
1.812552
1.878217
1.748429
1.863661
1.828955
1.761765
2.022743
3.230745
3.897007
3.724639
2.378246
2.752024
3.635469
3.475601
3.643732
1.924464
3.857085
3.382820
4.284240
4.202460
2.920202
1.080898
2.378196
2.132839
2.197862
1.706605
1.999626
1.659860
1.752836
0.527194
2.172443
2.235521
4.592735
0.352038
2.543596
0.353647
1.238614
0.975506
1.196349
0.482906
2.318526
1.897980
1.891989
1.507322
0.962566
1.259339
3.227572
4.310006
3.372220
1.864460
4.645620
2.633770
1.770787
3.658622
2.690302
2.679826
1.742729
3.343452
3.084384
0.993422
1.822350
1.094162
3.061078
1.881131
0.933022
1.058369
0.908183
3.354337
2.071598
3.090013
2.617724
1.939892
1.790821
1.661958
1.458391
1.753595
1.978442
2.492522
2.094490
2.382253
3.504365
2.485768
2.999804
3.902296
5.824454
5.816467
4.902780
5.861123
4.887355
5.732942
5.917015
5.730055
3.779554
3.835787
3.440728
3.399241
3.786869
3.887367
3.910957
2.308567
2.155298
2.019008
1.867324
1.908438
1.769726
1.747666
1.787311
1.587144
2.406916
2.543500
2.357320
2.300109
5.096733
4.328824
5.227929
4.491815
3.632564
3.060934
4.627165
1.773382
2.588951
3.913430
4.496591
3.370939
4.632834
1.679608
1.888969
1.475776
1.487472
1.783598
1.915532
2.429286
1.891213
2.146665
2.173772
1.954732
2.865467
2.764271
2.496692
3.323591
3.187264
1.838354
2.981539
0.561012
1.753390
2.557295
2.131104
1.061427
0.832146
3.753481
1.524932
2.363331
1.082630
0.969590
1.621404
2.471718
2.274891
1.675276
2.481042
2.636932
1.573934
1.582469
3.162622
1.633860
1.628109
1.161662
1.249723
2.491447
2.743990
1.618861
1.484210
1.911847
1.732256
1.860806
2.396913
1.445645
2.043326
2.242834
1.643750
1.802710
1.659391
0.729754
0.804060
0.114960
1.429600
1.896816
2.681856
3.326027
2.987335
2.870170
1.739274
1.858889
1.632432
1.785817
2.059132
2.244130
0.581014
0.575366
2.860215
2.131954
2.631853
4.997067
2.881672
1.902150
1.705523
1.814967
2.072929
2.045988
3.377366
2.226974
3.172626
3.530664
4.035666
3.646178
1.822648
1.955671
1.842104
1.863579
1.404421
2.210591
0.735463
1.844195
0.797893
1.067634
0.269211
0.656107
1.945925
2.352396
2.096269
1.738960
1.978970
3.556059
1.537108
1.417507
1.901706
1.690871
2.048463
1.904432
2.035317
2.135927
2.097865
2.121124
2.019201
2.075551
2.366414
1.017117
2.004537
1.905084
1.926520
3.868876
1.878834
2.118038
1.887451
2.053431
2.721817
1.992383
1.933771
4.056765
4.260082
3.227490
3.081308
1.676714
1.773436
1.691308
3.239449
1.879865
4.924218
1.971098
1.949346
3.099124
0.330851
0.947109
0.372509
2.155929
1.770790
1.655505
4.944479
1.187027
1.900798
1.889946
1.850505
2.071595
1.040266
1.146493
2.305549
2.173745
1.979704
1.970862
2.027906
0.964132
4.418969
2.132047
2.146191
2.369071
2.180114
3.745069
1.842218
1.748170
1.732713
2.465931
1.822996
1.777063
1.354945
1.345275
2.352481
3.040300
2.254513
2.855903
2.119454
2.498807
3.024733
3.266412
1.809066
1.776366
2.268679
2.186812
2.747318
3.284147
2.920017
4.261250
3.409554
3.642606
3.196224
2.601135
3.279023
3.513634
2.765042
2.197777
1.892684
2.120839
1.435066
1.601269
1.590489
1.918979
1.380615
1.140510
0.850048
2.793451
1.252625
2.985508
2.039450
1.907600
1.673383
1.881396
1.979715
1.315638
1.461145
1.530784
1.664853
0.604623
1.064860
0.943521
1.213857
1.452599
1.828171
3.027727
1.582352
1.578663
1.788045
1.988904
2.301530
1.628980
1.866631
2.134908
1.835508
1.850073
0.934146
3.008988
3.114352
1.968316
1.942869
2.133531
3.997123
5.024204
4.126866
4.022916
2.561729
3.400960
2.414492
1.809882
1.615441
2.167474
4.367058
2.094793
2.191816
2.022548
1.965219
2.002334
3.830086
3.389704
3.884851
3.916895
3.791494
1.930299
2.155234
1.047018
0.516534
1.936099
2.000045
2.176590
2.221499
3.625070
4.290638
4.165626
3.307591
1.907079
1.864678
3.990433
2.052859
2.414373
1.603346
4.008221
2.105460
2.141980
4.946222
1.300164
1.623402
2.610616
3.200988
2.492611
2.020522
1.988363
2.036553
2.049350
2.114564
5.129165
5.012607
1.992764
1.936459
2.649947
1.882816
1.832944
2.997023
3.059826
1.649258
2.338128
1.869172
1.768798
2.252380
2.232663
2.447184
1.584065
1.502871
1.488346
2.892268
2.751985
2.070267
2.379907
2.222058
2.302351
4.048479
2.892436
3.020561
1.991994
2.091108
2.534278
2.793046
2.248010
2.356207
1.253188
1.506808
3.783197
1.953717
2.235188
1.995686
2.169978
1.886980
3.957734
3.830032
1.611137
4.316157
4.184091
1.700556
1.759747
1.760363
1.799659
1.604105
1.612167
1.780404
1.799669
2.170619
2.241787
1.964777
1.979046
2.071648
1.917848
0.421373
1.029522
2.168507
2.433221
2.041912
1.781402
1.743324
4.132172
1.852397
4.086056
4.244330
3.900034
2.833717
2.146747
1.880854
2.091524
1.236113
1.977173
1.281290
0.813768
0.943407
0.398032
2.247025
2.004604
2.099072
1.908458
2.162157
2.086347
1.846841
1.629368
1.947909
0.825604
5.013631
4.886326
3.499168
1.607607
4.921911
3.087801
2.330243
2.619803
4.952946
4.040793
1.847275
1.901087
4.932695
1.935033
1.862648
2.534149
1.305032
1.344507
1.908500
1.773005
4.784066
3.399905
1.902182
1.506384
1.616905
2.077551
0.926069
0.862168
2.433234
2.055560
2.209240
1.840610
1.892231
3.230754
1.451560
1.703748
0.952926
1.157531
0.969849
2.082736
4.181662
2.920841
2.864554
1.708611
1.711695
2.585400
2.648307
2.526039
2.079590
2.934766
2.377753
2.160590
2.192652
2.146960
2.765702
2.476851
2.434702
2.128932
2.545785
2.294917
2.526660
2.225872
2.119323
2.078120
2.307891
2.168966
2.204998
2.891228
3.042515
2.990107
2.940808
2.480538
2.975545
3.132602
2.963171
2.782780
2.886603
2.307678
2.330548
2.381884
2.262230
2.042449
2.274307
2.096102
2.695998
2.690310
2.351689
1.834933
1.916970
1.793414
2.446592
0.598554
0.379360
0.926447
1.267360
1.945967
2.026245
1.971678
1.930724
2.043724
1.808930
2.468102
2.475326
1.881481
1.812069
1.978762
1.909073
1.928202
0.290130
0.553403
0.407299
0.679565
2.835992
2.628533
1.355746
0.717192
1.044087
0.733246
1.638664
2.059650
1.691276
1.939580
1.978657
1.416354
2.151022
1.453736
1.208202
1.219861
1.468179
1.527928
1.768107
1.843421
2.261122
1.805715
1.536179
1.420052
1.743299
1.745427
