# vtk DataFile Version 2.0
Unstructured Grid Example
ASCII
DATASET UNSTRUCTURED_GRID
POINTS 630 float
0.000219 0.499789 -0.000257 
0.500245 -0.000189 0.000297 
0.000231 -0.500212 0.000255 
-0.499756 -0.000197 -0.000294 
0.000226 0.499788 4.000244 
0.500241 -0.000199 3.999718 
0.000224 -0.500207 3.999759 
-0.499761 -0.000197 4.000278 
0.191559 0.461742 -0.000125 
0.353776 0.353364 0.000025 
0.462173 0.191156 0.000172 
0.462190 -0.191536 0.000373 
0.353801 -0.353763 0.000389 
0.191581 -0.462154 0.000350 
-0.191116 -0.462143 0.000120 
-0.353325 -0.353748 -0.000027 
-0.461702 -0.191534 -0.000170 
-0.461698 0.191139 -0.000365 
-0.353317 0.353342 -0.000380 
-0.191116 0.461724 -0.000349 
0.191566 0.461735 4.000115 
0.353780 0.353354 3.999973 
0.462173 0.191145 3.999836 
0.462182 -0.191543 3.999647 
0.353792 -0.353762 3.999631 
0.191572 -0.462149 3.999670 
-0.191120 -0.462141 3.999882 
-0.353326 -0.353749 4.000024 
-0.461706 -0.191536 4.000163 
-0.461702 0.191139 4.000349 
-0.353318 0.353345 4.000368 
-0.191111 0.461727 4.000329 
0.000086 0.499901 0.199753 
-0.000056 0.500013 0.399788 
-0.000167 0.500099 0.599862 
-0.000219 0.500143 0.799939 
-0.000203 0.500133 1.000026 
-0.000112 0.500070 1.200087 
0.000014 0.499982 1.400112 
0.000138 0.499889 1.600097 
0.000220 0.499834 1.800044 
0.000237 0.499825 1.999983 
0.000186 0.499863 2.199936 
0.000095 0.499924 2.399915 
-0.000015 0.500000 2.599917 
-0.000136 0.500098 2.799925 
-0.000196 0.500130 2.999979 
-0.000188 0.500131 3.200052 
-0.000144 0.500089 3.400146 
-0.000036 0.500006 3.600207 
0.000098 0.499894 3.800231 
0.000096 -0.500101 0.200241 
-0.000052 -0.499985 0.400208 
-0.000165 -0.499901 0.600138 
-0.000215 -0.499863 0.800049 
-0.000203 -0.499866 0.999986 
-0.000118 -0.499931 1.199930 
0.000006 -0.500018 1.399906 
0.000127 -0.500106 1.599916 
0.000210 -0.500158 1.799955 
0.000222 -0.500163 1.999993 
0.000202 -0.500150 2.200058 
0.000104 -0.500082 2.400101 
-0.000014 -0.499986 2.600105 
-0.000131 -0.499909 2.800065 
-0.000200 -0.499869 3.000001 
-0.000217 -0.499856 3.199917 
-0.000142 -0.499907 3.399848 
-0.000035 -0.500003 3.599806 
0.000097 -0.500107 3.799775 
0.500114 -0.000071 0.200285 
0.499984 0.000055 0.400246 
0.499888 0.000147 0.600158 
0.499836 0.000188 0.800074 
0.499846 0.000171 0.999978 
0.499916 0.000092 1.199912 
0.500013 -0.000014 1.399883 
0.500130 -0.000120 1.599889 
0.500183 -0.000183 1.799951 
0.500203 -0.000195 2.000021 
0.500167 -0.000166 2.200080 
0.500090 -0.000084 2.400110 
0.499991 0.000019 2.600118 
0.499898 0.000117 2.800079 
0.499841 0.000178 3.000014 
0.499849 0.000169 3.199937 
0.499904 0.000124 3.399836 
0.499995 0.000032 3.599769 
0.500119 -0.000086 3.799732 
-0.499883 -0.000080 0.199725 
-0.500018 0.000047 0.399764 
-0.500114 0.000142 0.599843 
-0.500158 0.000189 0.799929 
-0.500156 0.000176 1.000014 
-0.500083 0.000098 1.200084 
-0.499984 -0.000008 1.400115 
-0.499878 -0.000114 1.600103 
-0.499821 -0.000182 1.800051 
-0.499791 -0.000203 1.999996 
-0.499834 -0.000172 2.199936 
-0.499900 -0.000086 2.399890 
-0.500014 0.000019 2.599893 
-0.500100 0.000110 2.799918 
-0.500142 0.000179 2.999998 
-0.500157 0.000182 3.200085 
-0.500105 0.000122 3.400150 
-0.500008 0.000037 3.600227 
-0.499879 -0.000087 3.800263 
0.354390 0.352692 0.677912 
0.354673 0.352446 0.208738 
0.353559 0.353547 1.385402 
0.353718 0.353406 1.658920 
0.353557 0.353530 0.913177 
0.353400 0.353688 1.116541 
0.353786 0.353341 1.916349 
0.353426 0.353671 2.800006 
0.353659 0.353463 2.393601 
0.353756 0.353380 2.158236 
0.353523 0.353585 2.624486 
0.353384 0.353709 2.938316 
0.340636 0.366007 3.350659 
0.353531 0.353575 3.624875 
0.457683 0.201484 3.806577 
0.201675 0.457466 3.806833 
0.473053 0.161969 3.648772 
0.161950 0.473034 3.649064 
0.468414 0.174965 0.318826 
0.177647 0.467360 0.318472 
0.191349 0.461927 1.393276 
0.461950 0.191332 1.393166 
0.188835 0.462878 2.034974 
0.463286 0.188391 2.035010 
0.477400 0.148628 2.587896 
0.148603 0.477401 2.587750 
0.149934 0.477071 3.006999 
0.476749 0.150338 3.007036 
0.186376 0.464003 3.472242 
0.463827 0.186598 3.472030 
0.191254 0.462003 1.249243 
0.461867 0.191417 1.249141 
0.191443 0.461852 1.539771 
0.462036 0.191256 1.539663 
0.452227 0.213083 3.229328 
0.164184 0.472359 3.252991 
0.193406 0.461123 0.545638 
0.461861 0.191380 0.546223 
0.178666 0.467071 0.783131 
0.467038 0.178259 0.783268 
0.176380 0.467934 1.022730 
0.467696 0.176535 1.022720 
0.177033 0.467512 1.776874 
0.467886 0.176619 1.776813 
0.465416 0.182873 2.396093 
0.183065 0.465241 2.395979 
0.191207 0.462048 2.799455 
0.461823 0.191462 2.799539 
0.357632 0.349422 0.457155 
0.353700 0.353425 3.866509 
0.328493 0.376949 3.144362 
0.413625 0.280823 3.079764 
0.446747 0.224698 2.236607 
0.225036 0.446446 2.236539 
0.091190 0.491476 1.901044 
0.491857 0.090754 1.901025 
0.090136 0.491922 0.901457 
0.491651 0.090268 0.901512 
0.490021 0.100129 3.901461 
0.100434 0.489686 3.901861 
0.421435 0.269094 2.502366 
0.269168 0.421357 2.502296 
0.463303 0.188282 0.121401 
0.189438 0.462649 0.121093 
0.353394 -0.353405 0.785529 
0.353435 -0.353456 0.585646 
0.342211 -0.364598 0.330650 
0.353701 -0.353683 1.672746 
0.353394 -0.353424 0.977768 
0.353579 -0.353584 1.424289 
0.353756 -0.353724 1.894613 
0.353449 -0.353460 2.799700 
0.353728 -0.353700 2.191987 
0.353651 -0.353632 2.421080 
0.353539 -0.353540 2.607646 
0.353401 -0.353422 2.989553 
0.353396 -0.353425 3.179404 
0.343901 -0.362993 3.645174 
0.351075 -0.355872 3.465814 
0.194523 -0.460773 3.810132 
0.169991 -0.470336 0.227355 
0.420053 -0.271564 3.845344 
0.428165 -0.258535 0.182621 
0.154799 -0.475473 3.656847 
0.469868 -0.171160 3.706018 
0.207653 -0.454745 3.472193 
0.450643 -0.216407 3.474910 
0.447697 -0.222968 1.583442 
0.222973 -0.447682 1.583456 
0.459756 -0.196322 1.242183 
0.196301 -0.459776 1.242193 
0.191154 -0.461812 0.793315 
0.461788 -0.191181 0.793327 
0.473031 -0.162161 1.449922 
0.162157 -0.473028 1.449938 
0.226023 -0.446262 2.060668 
0.446302 -0.226002 2.060664 
0.177806 -0.467111 3.048070 
0.466961 -0.178186 3.048081 
0.463414 -0.187827 2.533092 
0.187836 -0.463411 2.533080 
0.194218 -0.460716 0.406677 
0.451548 -0.214671 0.400283 
0.461685 -0.191589 0.595824 
0.191566 -0.461702 0.595836 
0.469523 -0.172284 2.370634 
0.172309 -0.469514 2.370628 
0.179060 -0.466649 1.000855 
0.466620 -0.179095 1.000852 
0.461719 -0.191438 3.268627 
0.189002 -0.462729 3.268594 
0.165344 -0.472097 1.797292 
0.472127 -0.165311 1.797285 
0.200428 -0.457938 2.784767 
0.457908 -0.200481 2.784764 
0.316570 -0.387265 0.152896 
0.316500 -0.387337 3.858434 
0.352079 -0.354795 3.330289 
0.353436 -0.353463 1.121800 
0.444066 -0.230226 2.248895 
0.230257 -0.444045 2.248892 
0.490687 -0.095344 1.105764 
0.095315 -0.490706 1.105780 
0.098528 -0.490391 3.902324 
0.486351 -0.116836 0.129546 
0.353755 -0.353726 2.041980 
0.353493 -0.353512 1.257607 
0.485491 -0.119937 0.264082 
0.490461 -0.096436 2.908245 
0.096308 -0.490488 2.908234 
0.092065 -0.491638 0.107057 
0.483130 -0.129537 3.871338 
-0.353753 -0.353372 0.701838 
-0.364566 -0.342176 0.327074 
-0.353699 -0.353420 0.568046 
-0.353592 -0.353521 1.333478 
-0.353376 -0.353710 1.697478 
-0.353774 -0.353357 0.870790 
-0.353330 -0.353749 1.881121 
-0.369002 -0.337402 2.632736 
-0.353482 -0.353615 2.450764 
-0.353327 -0.353755 2.067340 
-0.351167 -0.355940 2.941534 
-0.353761 -0.353369 3.179522 
-0.362971 -0.343873 3.645517 
-0.356041 -0.351063 3.466081 
-0.460542 -0.194495 3.810601 
-0.470151 -0.169981 0.226113 
-0.271313 -0.420020 3.845648 
-0.257409 -0.428682 0.181986 
-0.475415 -0.154786 3.657273 
-0.171092 -0.469850 3.706216 
-0.454894 -0.207649 3.472515 
-0.216588 -0.450626 3.475096 
-0.222017 -0.448054 1.609030 
-0.447811 -0.222272 1.609116 
-0.208665 -0.454319 1.014604 
-0.454641 -0.208284 1.014634 
-0.453172 -0.211050 2.174289 
-0.210659 -0.453532 2.174339 
-0.466258 -0.180836 0.809541 
-0.181274 -0.465909 0.809615 
-0.194823 -0.460506 1.443188 
-0.460434 -0.194884 1.443308 
-0.197135 -0.459585 2.021554 
-0.459177 -0.197581 2.021549 
-0.184042 -0.464887 2.603491 
-0.467856 -0.176405 2.594162 
-0.197407 -0.459312 3.076355 
-0.467236 -0.178281 3.041410 
-0.460757 -0.194199 0.405181 
-0.211443 -0.453084 0.396689 
-0.467627 -0.177178 0.596772 
-0.177505 -0.467377 0.596939 
-0.181235 -0.465969 1.229905 
-0.466124 -0.181034 1.230003 
-0.191769 -0.461699 3.268737 
-0.462997 -0.188998 3.268814 
-0.471440 -0.166214 1.792632 
-0.165805 -0.471799 1.792575 
-0.177558 -0.467345 2.857674 
-0.441942 -0.233963 2.804887 
-0.386914 -0.316642 0.151518 
-0.387057 -0.316467 3.858848 
-0.355062 -0.352056 3.330485 
-0.353376 -0.353712 2.245866 
-0.353709 -0.353415 1.117350 
-0.490141 -0.099285 1.111184 
-0.099589 -0.489907 1.111104 
-0.491777 -0.090941 0.701516 
-0.091327 -0.491489 0.701692 
-0.165733 -0.471787 2.380799 
-0.471582 -0.165952 2.380671 
-0.490051 -0.098502 3.902834 
-0.116183 -0.486416 0.129107 
-0.118937 -0.485694 0.262908 
-0.353472 -0.353630 1.522601 
-0.316942 -0.386704 2.768062 
-0.488834 -0.105565 2.911549 
-0.491306 -0.092038 0.106337 
-0.129262 -0.483101 3.871507 
-0.353706 0.353676 0.703547 
-0.353655 0.353630 0.564753 
-0.342151 0.364542 0.326178 
-0.353494 0.353504 1.465203 
-0.353398 0.353419 1.676025 
-0.353722 0.353698 0.911478 
-0.353609 0.353596 1.258162 
-0.353663 0.353640 2.799904 
-0.353348 0.353379 1.920277 
-0.353458 0.353472 2.393466 
-0.353373 0.353399 2.159307 
-0.353578 0.353574 2.624339 
-0.353711 0.353677 2.989578 
-0.353703 0.353698 3.179592 
-0.343870 0.362945 3.645800 
-0.351231 0.355993 3.466295 
-0.194295 0.460542 3.810763 
-0.169844 0.470148 0.225914 
-0.419759 0.271315 3.846057 
-0.428452 0.257416 0.181353 
-0.154783 0.475408 3.657387 
-0.469746 0.171082 3.706642 
-0.207838 0.454854 3.472640 
-0.450761 0.216535 3.475373 
-0.445642 0.227142 1.001623 
-0.227170 0.445624 1.001645 
-0.183816 0.465195 0.814140 
-0.465217 0.183784 0.814148 
-0.188382 0.462905 2.036546 
-0.462872 0.188414 2.036562 
-0.477408 0.148625 2.587685 
[...]
POINT_DATA 630
SCALARS u float 1
LOOKUP_TABLE default
0.008682
0.009358
0.008817
0.009376
0.008598
0.009175
0.008485
0.009088
0.006966
0.006413
0.007511
0.010677
0.011050
0.010366
0.007126
0.006581
0.007632
0.010537
0.010800
0.010214
0.007072
0.006618
0.007553
0.010323
0.010615
0.009903
0.007033
0.006569
0.007530
0.010227
0.010575
0.009916
0.006110
0.004805
0.005197
0.005850
0.005325
0.003449
0.002490
0.004414
0.006077
0.006442
0.005229
0.003236
0.001841
0.004010
0.005159
0.005137
0.004889
0.004585
0.005947
0.006076
0.004694
0.005175
0.005656
0.005315
0.003354
0.002093
0.004047
0.005819
0.006011
0.005638
0.003635
0.002328
0.003756
0.005226
0.005961
0.004976
0.004295
0.005841
0.006883
0.005511
0.005311
0.005679
0.005048
0.003330
0.002576
0.004557
0.005739
0.006171
0.005416
0.003605
0.002619
0.003791
0.005218
0.005137
0.004946
0.005096
0.006662
0.006754
0.005269
0.005259
0.005586
0.005155
0.003348
0.002544
0.004275
0.005681
0.006355
0.005405
0.003753
0.002400
0.003717
0.004994
0.005578
0.004798
0.005020
0.006603
0.005645
0.002389
0.000364
0.004826
0.006234
0.004469
0.006881
0.003786
0.003050
0.005828
0.001000
0.005027
0.004961
0.000844
0.004587
0.003881
0.003645
0.002748
0.003673
0.002697
0.001080
0.001409
0.006624
0.006607
0.001875
0.001354
0.005757
0.005578
0.003716
0.004034
0.002541
0.002622
0.003080
0.003144
0.005760
0.005575
0.004413
0.004703
0.006214
0.005996
0.005530
0.005317
0.006263
0.006005
0.003171
0.003060
0.003851
0.003804
0.002729
0.004298
0.006233
0.005915
0.004923
0.005072
0.006517
0.006157
0.005882
0.005548
0.006946
0.006273
0.001545
0.001298
0.005670
0.004996
0.005355
0.006031
0.007358
0.004840
0.004484
0.003461
0.005829
0.003814
0.005246
0.004357
0.003292
0.004413
0.004903
0.006842
0.005804
0.007738
0.007513
0.008858
0.008767
0.005826
0.007110
0.005197
0.005856
0.004380
0.004080
0.003411
0.003309
0.005305
0.005281
0.003385
0.003022
0.005705
0.005954
0.005092
0.004760
0.003390
0.003146
0.006113
0.006570
0.005268
0.005584
0.004252
0.004362
0.004831
0.004645
0.004857
0.005288
0.005753
0.005698
0.003907
0.003850
0.009134
0.008922
0.005202
0.003721
0.004974
0.005119
0.004031
0.004147
0.008072
0.008691
0.005791
0.003271
0.007258
0.004298
0.004582
0.008174
0.008535
0.005899
0.000812
0.004341
0.001135
0.005171
0.006446
0.006483
0.001203
0.002067
0.006616
0.005476
0.006061
0.000705
0.003217
0.004633
0.004455
0.003934
0.003383
0.003571
0.002878
0.003895
0.003438
0.003905
0.004027
0.005525
0.005396
0.005773
0.005891
0.006139
0.006205
0.001466
0.001881
0.006625
0.006603
0.001368
0.001735
0.006117
0.005845
0.003334
0.002285
0.004896
0.004849
0.002932
0.003040
0.005527
0.005358
0.005980
0.005983
0.004556
0.003824
0.003956
0.004256
0.005086
0.005197
0.004554
0.004247
0.004332
0.005526
0.005689
0.003543
0.003595
0.006953
0.005705
0.003843
0.002452
0.003424
0.004682
0.006991
0.005541
0.005476
0.005843
0.007246
0.003812
0.005168
0.004881
0.003265
0.003699
0.005895
0.004003
0.005441
0.003034
0.004366
0.004855
0.006864
0.005540
0.007758
0.007427
0.008846
0.008762
0.006051
0.006844
0.005621
0.004900
0.004407
0.004691
0.005353
0.005081
0.005955
0.005874
0.002852
0.002498
0.004675
0.004987
0.006232
0.006678
0.005547
0.005569
0.003712
0.003847
0.005259
0.004978
0.003327
0.003222
0.004257
0.004284
0.006045
0.005956
0.004070
0.003529
0.004039
0.003848
0.008951
0.008926
0.005532
0.004170
0.004989
0.004868
0.005616
0.005392
0.005935
0.006116
0.008091
0.008602
0.003259
0.003096
0.007140
0.008122
0.008433
0.006761
0.007783
0.008125
0.008018
0.007712
0.006774
0.007618
0.007970
0.006698
0.006933
0.009229
0.008699
0.006815
0.009171
0.006710
0.006893
0.009379
0.006864
0.007024
0.006918
0.007141
0.006859
0.007835
0.008203
0.008211
0.007940
0.006770
0.007805
0.008214
0.006820
0.006842
0.009459
0.008890
0.006723
0.009523
0.006780
0.006972
0.009666
0.007019
0.007152
0.007059
0.007183
0.004358
0.006046
0.005625
0.005762
0.006082
0.005629
0.005565
0.003677
0.002185
0.003923
0.003928
0.001446
0.002297
0.002401
0.004496
0.005299
0.005569
0.004372
0.003960
0.003097
0.005703
0.004408
0.006184
0.005966
0.006740
0.005979
0.006139
0.005986
0.004505
0.005314
0.003051
0.004750
0.003519
0.003619
0.003031
0.004543
0.003219
0.001887
0.004697
0.006043
0.006288
0.005154
0.005874
0.005737
0.005822
0.000618
0.005864
0.002380
0.002302
0.002217
0.001636
0.004312
0.002333
0.002272
0.002289
0.004518
0.004098
0.004340
0.004082
0.003317
0.003988
0.003891
0.005646
0.001731
0.005302
0.005157
0.005199
0.003491
0.005413
0.005387
0.003575
0.004638
0.003111
0.002566
0.003628
0.005644
0.004644
0.004508
0.004419
0.005388
0.004871
0.004854
0.001928
0.005377
0.004989
0.005086
0.005839
0.004999
0.003450
0.003469
0.003382
0.003269
0.006479
0.005696
0.005957
0.002551
0.006200
0.003121
0.000542
0.003683
0.003110
0.001614
0.000433
0.002394
0.000877
0.004358
0.006046
0.005625
0.005762
0.006082
0.005629
0.005565
0.003677
0.002185
0.003923
0.003928
0.001446
0.002297
0.002401
0.004496
0.005299
0.005569
0.004372
0.003960
0.003097
0.005703
0.004408
0.006184
0.005966
0.006740
0.005979
0.006139
0.005986
0.004505
0.005314
0.003051
0.004750
0.003519
0.003619
0.003031
0.004543
0.003219
0.001887
0.004697
0.006043
0.006288
0.005154
0.005874
0.005737
0.005822
0.000618
0.005864
0.002380
0.002302
0.002217
0.001636
0.004312
0.002333
0.002272
0.002289
0.004518
0.004098
0.004340
0.004082
0.003317
0.003988
0.003891
0.005646
0.001731
0.005302
0.005157
0.005199
0.003491
0.005413
0.005387
0.003575
0.004638
0.003111
0.002566
0.003628
0.005644
0.004644
0.004508
0.004419
0.005388
0.004871
0.004854
0.001928
0.005377
0.004989
0.005086
0.005839
0.004999
0.003450
0.003469
0.003382
0.003269
0.006479
0.005696
0.005957
0.002551
0.006200
0.003121
0.000542
0.003683
0.003110
0.001614
0.000433
0.002394
0.000877
