# vtk DataFile Version 2.0
Unstructured Grid Example
ASCII
DATASET UNSTRUCTURED_GRID
POINTS 630 float
0.000473 0.499545 -0.000554 
0.500529 -0.000408 0.000642 
0.000499 -0.500458 0.000551 
-0.499474 -0.000426 -0.000635 
0.000488 0.499542 4.000526 
0.500520 -0.000429 3.999392 
0.000484 -0.500448 3.999480 
-0.499484 -0.000426 4.000601 
0.191810 0.461512 -0.000269 
0.354035 0.353143 0.000055 
0.462443 0.190940 0.000372 
0.462480 -0.191762 0.000805 
0.354088 -0.354005 0.000841 
0.191859 -0.462402 0.000756 
-0.190855 -0.462379 0.000260 
-0.353059 -0.353974 -0.000058 
-0.461426 -0.191756 -0.000368 
-0.461417 0.190904 -0.000789 
-0.353042 0.353097 -0.000821 
-0.190854 0.461475 -0.000754 
0.191825 0.461498 4.000248 
0.354044 0.353123 3.999942 
0.462444 0.190918 3.999647 
0.462463 -0.191777 3.999238 
0.354068 -0.354003 3.999202 
0.191840 -0.462392 3.999287 
-0.190862 -0.462375 3.999745 
-0.353063 -0.353977 4.000052 
-0.461435 -0.191761 4.000352 
-0.461426 0.190904 4.000754 
-0.353044 0.353102 4.000796 
-0.190844 0.461480 4.000710 
0.000186 0.499786 0.199466 
-0.000121 0.500028 0.399541 
-0.000360 0.500215 0.599703 
-0.000473 0.500308 0.799869 
-0.000439 0.500286 1.000056 
-0.000242 0.500151 1.200187 
0.000029 0.499961 1.400242 
0.000299 0.499761 1.600211 
0.000474 0.499642 1.800095 
0.000512 0.499622 1.999964 
0.000402 0.499705 2.199862 
0.000205 0.499836 2.399817 
-0.000033 0.500000 2.599821 
-0.000295 0.500211 2.799838 
-0.000424 0.500281 2.999955 
-0.000407 0.500284 3.200112 
-0.000312 0.500192 3.400316 
-0.000078 0.500012 3.600447 
0.000211 0.499770 3.800499 
0.000208 -0.500218 0.200520 
-0.000111 -0.499968 0.400450 
-0.000357 -0.499787 0.600299 
-0.000464 -0.499705 0.800105 
-0.000438 -0.499711 0.999970 
-0.000255 -0.499850 1.199850 
0.000012 -0.500039 1.399797 
0.000274 -0.500230 1.599819 
0.000454 -0.500341 1.799903 
0.000480 -0.500351 1.999985 
0.000436 -0.500325 2.200126 
0.000224 -0.500177 2.400219 
-0.000031 -0.499970 2.600226 
-0.000282 -0.499803 2.800140 
-0.000432 -0.499716 3.000003 
-0.000469 -0.499690 3.199821 
-0.000307 -0.499799 3.399672 
-0.000075 -0.500007 3.599582 
0.000210 -0.500230 3.799513 
0.500247 -0.000154 0.200616 
0.499965 0.000118 0.400531 
0.499758 0.000318 0.600342 
0.499645 0.000406 0.800160 
0.499667 0.000369 0.999951 
0.499819 0.000198 1.199809 
0.500028 -0.000029 1.399748 
0.500281 -0.000259 1.599761 
0.500395 -0.000395 1.799895 
0.500439 -0.000422 2.000045 
0.500360 -0.000358 2.200172 
0.500193 -0.000182 2.400238 
0.499981 0.000042 2.600255 
0.499780 0.000252 2.800170 
0.499657 0.000385 3.000031 
0.499674 0.000366 3.199865 
0.499793 0.000267 3.399646 
0.499990 0.000069 3.599500 
0.500257 -0.000187 3.799422 
-0.499748 -0.000173 0.199406 
-0.500039 0.000101 0.399490 
-0.500247 0.000308 0.599660 
-0.500341 0.000408 0.799847 
-0.500338 0.000381 1.000031 
-0.500180 0.000211 1.200182 
-0.499965 -0.000017 1.400249 
-0.499737 -0.000246 1.600223 
-0.499614 -0.000394 1.800110 
-0.499548 -0.000438 1.999992 
-0.499641 -0.000371 2.199861 
-0.499783 -0.000185 2.399762 
-0.500030 0.000041 2.599768 
-0.500216 0.000239 2.799822 
-0.500307 0.000388 2.999996 
-0.500340 0.000394 3.200184 
-0.500226 0.000263 3.400324 
-0.500017 0.000080 3.600490 
-0.499739 -0.000189 3.800569 
0.354166 0.352890 0.677928 
0.354769 0.352368 0.208767 
0.353565 0.353540 1.385385 
0.353909 0.353235 1.658914 
0.353311 0.353753 0.913178 
0.353221 0.353845 1.116529 
0.354057 0.353095 1.916358 
0.353278 0.353808 2.800012 
0.353782 0.353358 2.393612 
0.353991 0.353178 2.158241 
0.353487 0.353621 2.624500 
0.353187 0.353890 2.938322 
0.340438 0.366181 3.350653 
0.353506 0.353599 3.624848 
0.457817 0.201380 3.806402 
0.201794 0.457348 3.806953 
0.473066 0.161980 3.648579 
0.161939 0.473024 3.649209 
0.468440 0.174977 0.319019 
0.177640 0.467342 0.318329 
0.191357 0.461912 1.393331 
0.461961 0.191321 1.393093 
0.189111 0.462658 2.034962 
0.463541 0.188151 2.035039 
0.477395 0.148646 2.587994 
0.148591 0.477398 2.587680 
0.149683 0.477244 3.006976 
0.476547 0.150554 3.007058 
0.186240 0.464101 3.472345 
0.463721 0.186719 3.471888 
0.191152 0.462076 1.249293 
0.461782 0.191504 1.249073 
0.191561 0.461750 1.539822 
0.462147 0.191156 1.539589 
0.452015 0.213299 3.229283 
0.163952 0.472537 3.253038 
0.193230 0.461248 0.545546 
0.461721 0.191541 0.546354 
0.178402 0.467267 0.783098 
0.466826 0.178491 0.783323 
0.176145 0.468111 1.022741 
0.467500 0.176739 1.022706 
0.177289 0.467302 1.776908 
0.468110 0.176394 1.776774 
0.465525 0.182769 2.396170 
0.183185 0.465146 2.395923 
0.191050 0.462173 2.799413 
0.461687 0.191601 2.799595 
0.357529 0.349521 0.457180 
0.353871 0.353276 3.866478 
0.328242 0.377165 3.144362 
0.413401 0.281044 3.079763 
0.446931 0.224518 2.236653 
0.225247 0.446281 2.236507 
0.091465 0.491265 1.901055 
0.492088 0.090522 1.901015 
0.089880 0.492102 0.901441 
0.491456 0.090488 0.901539 
0.490227 0.099963 3.901204 
0.100622 0.489505 3.902069 
0.421485 0.269056 2.502419 
0.269216 0.421315 2.502269 
0.463484 0.188146 0.121600 
0.189600 0.462496 0.120949 
0.353208 -0.353233 0.785659 
0.353297 -0.353342 0.585913 
0.342246 -0.364628 0.331038 
0.353873 -0.353833 1.672627 
0.353210 -0.353273 0.977757 
0.353608 -0.353620 1.424111 
0.353991 -0.353921 1.894573 
0.353328 -0.353352 2.799821 
0.353930 -0.353870 2.192077 
0.353764 -0.353723 2.421260 
0.353522 -0.353525 2.607819 
0.353224 -0.353269 2.989576 
0.353214 -0.353276 3.179292 
0.343924 -0.363022 3.644812 
0.350977 -0.355802 3.465530 
0.194657 -0.460907 3.809767 
0.170091 -0.470440 0.227728 
0.420226 -0.271707 3.844930 
0.428320 -0.258652 0.183045 
0.154812 -0.475514 3.656540 
0.469939 -0.171206 3.705650 
0.207539 -0.454685 3.471948 
0.450565 -0.216330 3.474618 
0.447827 -0.223090 1.583293 
0.223103 -0.447795 1.583324 
0.459682 -0.196252 1.242033 
0.196207 -0.459725 1.242053 
0.190936 -0.461663 0.793414 
0.461611 -0.190995 0.793441 
0.473081 -0.162210 1.449757 
0.162202 -0.473074 1.449791 
0.226260 -0.446450 2.060695 
0.446535 -0.226215 2.060686 
0.177584 -0.466957 3.048057 
0.466785 -0.178004 3.048077 
0.463445 -0.187849 2.533269 
0.187868 -0.463439 2.533242 
0.194177 -0.460708 0.406999 
0.451536 -0.214639 0.400630 
0.461565 -0.191454 0.596038 
0.191404 -0.461601 0.596064 
0.469647 -0.172394 2.370786 
0.172449 -0.469627 2.370774 
0.178845 -0.466513 1.000825 
0.466450 -0.178919 1.000819 
0.461572 -0.191289 3.268476 
0.188805 -0.462608 3.268433 
0.165581 -0.472277 1.797223 
0.472341 -0.165510 1.797207 
0.200297 -0.457843 2.784897 
0.457798 -0.200362 2.784889 
0.316740 -0.387413 0.153326 
0.316676 -0.387496 3.858023 
0.351924 -0.354685 3.330088 
0.353300 -0.353359 1.121701 
0.444243 -0.230386 2.249009 
0.230454 -0.444198 2.249002 
0.490554 -0.095199 1.105679 
0.095136 -0.490596 1.105713 
0.098723 -0.490578 3.901991 
0.486543 -0.116974 0.129943 
0.353989 -0.353925 2.041998 
0.353424 -0.353463 1.257455 
0.485583 -0.119984 0.264454 
0.490318 -0.096272 2.908315 
0.096114 -0.490353 2.908291 
0.092254 -0.491819 0.107404 
0.483322 -0.129690 3.870957 
-0.353985 -0.353161 0.701823 
-0.364558 -0.342173 0.327032 
-0.353868 -0.353264 0.568022 
-0.353638 -0.353484 1.333492 
-0.353170 -0.353891 1.697493 
-0.354030 -0.353129 0.870784 
-0.353071 -0.353977 1.881129 
-0.369044 -0.337361 2.632711 
-0.353399 -0.353686 2.450755 
-0.353065 -0.353989 2.067343 
-0.351383 -0.355745 2.941527 
-0.354002 -0.353155 3.179530 
-0.362973 -0.343864 3.645554 
-0.356168 -0.350951 3.466107 
-0.460408 -0.194597 3.810781 
-0.470047 -0.170045 0.225910 
-0.271164 -0.420153 3.845586 
-0.257287 -0.428792 0.182059 
-0.475389 -0.154783 3.657461 
-0.171059 -0.469901 3.706075 
-0.455007 -0.207530 3.472642 
-0.216720 -0.450530 3.475015 
-0.221863 -0.448188 1.608993 
-0.447663 -0.222413 1.609178 
-0.208900 -0.454144 1.014588 
-0.454838 -0.208077 1.014652 
-0.452953 -0.211263 2.174260 
-0.210418 -0.453730 2.174367 
-0.466473 -0.180596 0.809492 
-0.181542 -0.465720 0.809652 
-0.194788 -0.460548 1.443132 
-0.460393 -0.194919 1.443392 
-0.196860 -0.459805 2.021562 
-0.458922 -0.197823 2.021551 
-0.184063 -0.464868 2.603558 
-0.467874 -0.176384 2.594075 
-0.197669 -0.459120 3.076335 
-0.467442 -0.178048 3.041419 
-0.460796 -0.194137 0.405020 
-0.211503 -0.453048 0.396789 
-0.467778 -0.177000 0.596657 
-0.177707 -0.467238 0.597019 
-0.181359 -0.465887 1.229857 
-0.466223 -0.180925 1.230071 
-0.192003 -0.461529 3.268687 
-0.463188 -0.188797 3.268881 
-0.471217 -0.166437 1.792673 
-0.165555 -0.471993 1.792550 
-0.177747 -0.467196 2.857705 
-0.442083 -0.233824 2.804843 
-0.386760 -0.316764 0.151444 
-0.386892 -0.316605 3.858918 
-0.355262 -0.351875 3.330504 
-0.353170 -0.353896 2.245863 
-0.353890 -0.353254 1.117359 
-0.490288 -0.099121 1.111234 
-0.099777 -0.489782 1.111060 
-0.491950 -0.090732 0.701403 
-0.091568 -0.491329 0.701782 
-0.165596 -0.471898 2.380865 
-0.471454 -0.166067 2.380588 
-0.489844 -0.098667 3.903092 
-0.116019 -0.486574 0.129307 
-0.118886 -0.485761 0.263095 
-0.353378 -0.353719 1.522617 
-0.317077 -0.386581 2.768063 
-0.488995 -0.105379 2.911510 
-0.491104 -0.092190 0.106065 
-0.129097 -0.483259 3.871322 
-0.353884 0.353819 0.703366 
-0.353774 0.353719 0.564480 
-0.342117 0.364506 0.325796 
-0.353425 0.353446 1.465385 
-0.353217 0.353262 1.676161 
-0.353917 0.353866 0.911446 
-0.353673 0.353646 1.258316 
-0.353790 0.353740 2.799792 
-0.353110 0.353177 1.920302 
-0.353346 0.353377 2.393311 
-0.353163 0.353221 2.159219 
-0.353607 0.353599 2.624182 
-0.353893 0.353820 2.989572 
-0.353878 0.353865 3.179683 
-0.343857 0.362917 3.646163 
-0.351315 0.356064 3.466568 
-0.194164 0.460406 3.811130 
-0.169750 0.470041 0.225545 
-0.419590 0.271170 3.846471 
-0.428302 0.257292 0.180930 
-0.154776 0.475375 3.657707 
-0.469677 0.171038 3.706996 
-0.207939 0.454921 3.472913 
-0.450819 0.216607 3.475617 
-0.445803 0.227311 1.001639 
-0.227372 0.445763 1.001687 
-0.184044 0.465347 0.814063 
-0.465394 0.183976 0.814080 
-0.188131 0.462717 2.036500 
-0.462647 0.188199 2.036535 
-0.477413 0.148637 2.587534 
[...]
POINT_DATA 630
SCALARS u float 1
LOOKUP_TABLE default
0.008682
0.009358
0.008817
0.009376
0.008598
0.009175
0.008485
0.009088
0.006966
0.006413
0.007511
0.010677
0.011050
0.010366
0.007126
0.006581
0.007632
0.010537
0.010800
0.010214
0.007072
0.006618
0.007553
0.010323
0.010615
0.009903
0.007033
0.006569
0.007530
0.010227
0.010575
0.009916
0.006110
0.004805
0.005197
0.005850
0.005325
0.003449
0.002490
0.004414
0.006077
0.006442
0.005229
0.003236
0.001841
0.004010
0.005159
0.005137
0.004889
0.004585
0.005947
0.006076
0.004694
0.005175
0.005656
0.005315
0.003354
0.002093
0.004047
0.005819
0.006011
0.005638
0.003635
0.002328
0.003756
0.005226
0.005961
0.004976
0.004295
0.005841
0.006883
0.005511
0.005311
0.005679
0.005048
0.003330
0.002576
0.004557
0.005739
0.006171
0.005416
0.003605
0.002619
0.003791
0.005218
0.005137
0.004946
0.005096
0.006662
0.006754
0.005269
0.005259
0.005586
0.005155
0.003348
0.002544
0.004275
0.005681
0.006355
0.005405
0.003753
0.002400
0.003717
0.004994
0.005578
0.004798
0.005020
0.006603
0.005645
0.002389
0.000364
0.004826
0.006234
0.004469
0.006881
0.003786
0.003050
0.005828
0.001000
0.005027
0.004961
0.000844
0.004587
0.003881
0.003645
0.002748
0.003673
0.002697
0.001080
0.001409
0.006624
0.006607
0.001875
0.001354
0.005757
0.005578
0.003716
0.004034
0.002541
0.002622
0.003080
0.003144
0.005760
0.005575
0.004413
0.004703
0.006214
0.005996
0.005530
0.005317
0.006263
0.006005
0.003171
0.003060
0.003851
0.003804
0.002729
0.004298
0.006233
0.005915
0.004923
0.005072
0.006517
0.006157
0.005882
0.005548
0.006946
0.006273
0.001545
0.001298
0.005670
0.004996
0.005355
0.006031
0.007358
0.004840
0.004484
0.003461
0.005829
0.003814
0.005246
0.004357
0.003292
0.004413
0.004903
0.006842
0.005804
0.007738
0.007513
0.008858
0.008767
0.005826
0.007110
0.005197
0.005856
0.004380
0.004080
0.003411
0.003309
0.005305
0.005281
0.003385
0.003022
0.005705
0.005954
0.005092
0.004760
0.003390
0.003146
0.006113
0.006570
0.005268
0.005584
0.004252
0.004362
0.004831
0.004645
0.004857
0.005288
0.005753
0.005698
0.003907
0.003850
0.009134
0.008922
0.005202
0.003721
0.004974
0.005119
0.004031
0.004147
0.008072
0.008691
0.005791
0.003271
0.007258
0.004298
0.004582
0.008174
0.008535
0.005899
0.000812
0.004341
0.001135
0.005171
0.006446
0.006483
0.001203
0.002067
0.006616
0.005476
0.006061
0.000705
0.003217
0.004633
0.004455
0.003934
0.003383
0.003571
0.002878
0.003895
0.003438
0.003905
0.004027
0.005525
0.005396
0.005773
0.005891
0.006139
0.006205
0.001466
0.001881
0.006625
0.006603
0.001368
0.001735
0.006117
0.005845
0.003334
0.002285
0.004896
0.004849
0.002932
0.003040
0.005527
0.005358
0.005980
0.005983
0.004556
0.003824
0.003956
0.004256
0.005086
0.005197
0.004554
0.004247
0.004332
0.005526
0.005689
0.003543
0.003595
0.006953
0.005705
0.003843
0.002452
0.003424
0.004682
0.006991
0.005541
0.005476
0.005843
0.007246
0.003812
0.005168
0.004881
0.003265
0.003699
0.005895
0.004003
0.005441
0.003034
0.004366
0.004855
0.006864
0.005540
0.007758
0.007427
0.008846
0.008762
0.006051
0.006844
0.005621
0.004900
0.004407
0.004691
0.005353
0.005081
0.005955
0.005874
0.002852
0.002498
0.004675
0.004987
0.006232
0.006678
0.005547
0.005569
0.003712
0.003847
0.005259
0.004978
0.003327
0.003222
0.004257
0.004284
0.006045
0.005956
0.004070
0.003529
0.004039
0.003848
0.008951
0.008926
0.005532
0.004170
0.004989
0.004868
0.005616
0.005392
0.005935
0.006116
0.008091
0.008602
0.003259
0.003096
0.007140
0.008122
0.008433
0.006761
0.007783
0.008125
0.008018
0.007712
0.006774
0.007618
0.007970
0.006698
0.006933
0.009229
0.008699
0.006815
0.009171
0.006710
0.006893
0.009379
0.006864
0.007024
0.006918
0.007141
0.006859
0.007835
0.008203
0.008211
0.007940
0.006770
0.007805
0.008214
0.006820
0.006842
0.009459
0.008890
0.006723
0.009523
0.006780
0.006972
0.009666
0.007019
0.007152
0.007059
0.007183
0.004358
0.006046
0.005625
0.005762
0.006082
0.005629
0.005565
0.003677
0.002185
0.003923
0.003928
0.001446
0.002297
0.002401
0.004496
0.005299
0.005569
0.004372
0.003960
0.003097
0.005703
0.004408
0.006184
0.005966
0.006740
0.005979
0.006139
0.005986
0.004505
0.005314
0.003051
0.004750
0.003519
0.003619
0.003031
0.004543
0.003219
0.001887
0.004697
0.006043
0.006288
0.005154
0.005874
0.005737
0.005822
0.000618
0.005864
0.002380
0.002302
0.002217
0.001636
0.004312
0.002333
0.002272
0.002289
0.004518
0.004098
0.004340
0.004082
0.003317
0.003988
0.003891
0.005646
0.001731
0.005302
0.005157
0.005199
0.003491
0.005413
0.005387
0.003575
0.004638
0.003111
0.002566
0.003628
0.005644
0.004644
0.004508
0.004419
0.005388
0.004871
0.004854
0.001928
0.005377
0.004989
0.005086
0.005839
0.004999
0.003450
0.003469
0.003382
0.003269
0.006479
0.005696
0.005957
0.002551
0.006200
0.003121
0.000542
0.003683
0.003110
0.001614
0.000433
0.002394
0.000877
0.004358
0.006046
0.005625
0.005762
0.006082
0.005629
0.005565
0.003677
0.002185
0.003923
0.003928
0.001446
0.002297
0.002401
0.004496
0.005299
0.005569
0.004372
0.003960
0.003097
0.005703
0.004408
0.006184
0.005966
0.006740
0.005979
0.006139
0.005986
0.004505
0.005314
0.003051
0.004750
0.003519
0.003619
0.003031
0.004543
0.003219
0.001887
0.004697
0.006043
0.006288
0.005154
0.005874
0.005737
0.005822
0.000618
0.005864
0.002380
0.002302
0.002217
0.001636
0.004312
0.002333
0.002272
0.002289
0.004518
0.004098
0.004340
0.004082
0.003317
0.003988
0.003891
0.005646
0.001731
0.005302
0.005157
0.005199
0.003491
0.005413
0.005387
0.003575
0.004638
0.003111
0.002566
0.003628
0.005644
0.004644
0.004508
0.004419
0.005388
0.004871
0.004854
0.001928
0.005377
0.004989
0.005086
0.005839
0.004999
0.003450
0.003469
0.003382
0.003269
0.006479
0.005696
0.005957
0.002551
0.006200
0.003121
0.000542
0.003683
0.003110
0.001614
0.000433
0.002394
0.000877
