# vtk DataFile Version 2.0
Unstructured Grid Example
ASCII
DATASET UNSTRUCTURED_GRID
POINTS 630 float
-0.000473 0.500455 0.000554 
0.499471 0.000408 -0.000642 
-0.000499 -0.499542 -0.000551 
-0.500526 0.000426 0.000635 
-0.000488 0.500458 3.999474 
0.499480 0.000429 4.000608 
-0.000484 -0.499552 4.000520 
-0.500516 0.000426 3.999399 
0.190873 0.462368 0.000269 
0.353072 0.353963 -0.000055 
0.461437 0.191743 -0.000372 
0.461399 -0.190921 -0.000805 
0.353019 -0.353102 -0.000841 
0.190825 -0.461478 -0.000756 
-0.191829 -0.461500 -0.000260 
-0.354048 -0.353133 0.000058 
-0.462453 -0.190927 0.000368 
-0.462463 0.191780 0.000789 
-0.354064 0.354010 0.000821 
-0.191829 0.462405 0.000754 
0.190858 0.462381 3.999752 
0.353063 0.353984 4.000058 
0.461435 0.191766 4.000353 
0.461417 -0.190906 4.000762 
0.353039 -0.353104 4.000798 
0.190844 -0.461487 4.000713 
-0.191821 -0.461504 4.000255 
-0.354044 -0.353130 3.999948 
-0.462445 -0.190922 3.999648 
-0.462454 0.191779 3.999246 
-0.354062 0.354004 3.999204 
-0.191839 0.462400 3.999290 
-0.000186 0.500214 0.200534 
0.000121 0.499972 0.400459 
0.000360 0.499785 0.600297 
0.000473 0.499692 0.800131 
0.000439 0.499714 0.999944 
0.000242 0.499849 1.199813 
-0.000029 0.500039 1.399758 
-0.000299 0.500239 1.599789 
-0.000474 0.500358 1.799905 
-0.000512 0.500378 2.000036 
-0.000402 0.500295 2.200138 
-0.000205 0.500164 2.400183 
0.000033 0.500000 2.600179 
0.000295 0.499789 2.800162 
0.000424 0.499719 3.000045 
0.000407 0.499716 3.199888 
0.000312 0.499808 3.399684 
0.000078 0.499988 3.599553 
-0.000211 0.500230 3.799501 
-0.000208 -0.499782 0.199480 
0.000111 -0.500032 0.399550 
0.000357 -0.500213 0.599701 
0.000464 -0.500295 0.799895 
0.000438 -0.500289 1.000030 
0.000255 -0.500150 1.200150 
-0.000012 -0.499961 1.400203 
-0.000274 -0.499770 1.600181 
-0.000454 -0.499659 1.800097 
-0.000480 -0.499649 2.000015 
-0.000436 -0.499675 2.199874 
-0.000224 -0.499823 2.399781 
0.000031 -0.500030 2.599774 
0.000282 -0.500197 2.799860 
0.000432 -0.500284 2.999997 
0.000469 -0.500310 3.200179 
0.000307 -0.500201 3.400328 
0.000075 -0.499993 3.600418 
-0.000210 -0.499770 3.800487 
0.499753 0.000154 0.199384 
0.500035 -0.000118 0.399469 
0.500242 -0.000318 0.599658 
0.500355 -0.000406 0.799840 
0.500333 -0.000369 1.000049 
0.500181 -0.000198 1.200191 
0.499972 0.000029 1.400252 
0.499719 0.000259 1.600239 
0.499605 0.000395 1.800105 
0.499561 0.000422 1.999955 
0.499640 0.000358 2.199828 
0.499807 0.000182 2.399762 
0.500019 -0.000042 2.599745 
0.500220 -0.000252 2.799830 
0.500343 -0.000385 2.999969 
0.500326 -0.000366 3.200135 
0.500207 -0.000267 3.400354 
0.500010 -0.000069 3.600500 
0.499743 0.000187 3.800578 
-0.500252 0.000173 0.200594 
-0.499961 -0.000101 0.400510 
-0.499753 -0.000308 0.600340 
-0.499659 -0.000408 0.800153 
-0.499662 -0.000381 0.999969 
-0.499820 -0.000211 1.199818 
-0.500035 0.000017 1.399751 
-0.500263 0.000246 1.599777 
-0.500386 0.000394 1.799890 
-0.500452 0.000438 2.000008 
-0.500359 0.000371 2.200139 
-0.500217 0.000185 2.400238 
-0.499970 -0.000041 2.600232 
-0.499784 -0.000239 2.800178 
-0.499693 -0.000388 3.000004 
-0.499660 -0.000394 3.199816 
-0.499774 -0.000263 3.399676 
-0.499983 -0.000080 3.599510 
-0.500261 0.000189 3.799431 
0.355001 0.352151 0.677867 
0.354412 0.352658 0.208660 
0.353542 0.353566 1.385448 
0.353198 0.353872 1.658937 
0.354226 0.352924 0.913176 
0.353885 0.353262 1.116573 
0.353050 0.354012 1.916324 
0.353828 0.353299 2.799988 
0.353324 0.353749 2.393569 
0.353116 0.353929 2.158224 
0.353620 0.353485 2.624445 
0.353920 0.353217 2.938302 
0.341175 0.365532 3.350677 
0.353601 0.353507 3.624950 
0.457319 0.201766 3.807056 
0.201352 0.457787 3.806504 
0.473019 0.161937 3.649298 
0.161978 0.473062 3.648668 
0.468344 0.174930 0.318300 
0.177665 0.467408 0.318859 
0.191326 0.461968 1.393127 
0.461918 0.191362 1.393365 
0.188086 0.463475 2.035008 
0.462593 0.189045 2.034931 
0.477412 0.148582 2.587629 
0.148637 0.477408 2.587943 
0.150619 0.476600 3.007060 
0.477297 0.149747 3.006978 
0.186748 0.463735 3.471959 
0.464115 0.186268 3.472416 
0.191532 0.461804 1.249106 
0.462098 0.191179 1.249326 
0.191122 0.462129 1.539634 
0.461732 0.191527 1.539867 
0.452806 0.212494 3.229450 
0.164817 0.471874 3.252862 
0.193886 0.460783 0.545889 
0.462242 0.190941 0.545869 
0.179384 0.466536 0.783221 
0.467615 0.177628 0.783118 
0.177018 0.467451 1.022700 
0.468229 0.175981 1.022759 
0.176336 0.468086 1.776784 
0.467278 0.177231 1.776918 
0.465120 0.183155 2.395884 
0.182739 0.465499 2.396131 
0.191633 0.461706 2.799567 
0.462192 0.191083 2.799385 
0.357913 0.349152 0.457087 
0.353236 0.353831 3.866592 
0.329177 0.376360 3.144363 
0.414235 0.280221 3.079766 
0.446245 0.225189 2.236481 
0.224461 0.446895 2.236627 
0.090442 0.492051 1.901013 
0.491228 0.091385 1.901053 
0.090833 0.491434 0.901499 
0.492181 0.089670 0.901437 
0.489457 0.100581 3.902161 
0.099922 0.490180 3.901296 
0.421299 0.269196 2.502221 
0.269036 0.421468 2.502371 
0.462811 0.188653 0.120858 
0.188996 0.463066 0.121487 
0.353898 -0.353874 0.785174 
0.353810 -0.353765 0.584921 
0.342114 -0.364517 0.329592 
0.353234 -0.353274 1.673071 
0.353897 -0.353834 0.977799 
0.353499 -0.353486 1.424774 
0.353115 -0.353185 1.894723 
0.353779 -0.353754 2.799369 
0.353177 -0.353237 2.191744 
0.353342 -0.353383 2.420589 
0.353585 -0.353582 2.607173 
0.353882 -0.353837 2.989489 
0.353892 -0.353831 3.179710 
0.343837 -0.362915 3.646160 
0.351341 -0.356061 3.466588 
0.194158 -0.460409 3.811127 
0.169720 -0.470054 0.226340 
0.419583 -0.271175 3.846472 
0.427745 -0.258217 0.181466 
0.154765 -0.475360 3.657682 
0.469673 -0.171035 3.707022 
0.207961 -0.454907 3.472859 
0.450854 -0.216617 3.475704 
0.447343 -0.222633 1.583849 
0.222621 -0.447376 1.583818 
0.459956 -0.196514 1.242592 
0.196559 -0.459913 1.242572 
0.191748 -0.462216 0.793044 
0.462269 -0.191689 0.793018 
0.472895 -0.162025 1.450373 
0.162033 -0.472902 1.450339 
0.225379 -0.445751 2.060596 
0.445666 -0.225424 2.060604 
0.178411 -0.467531 3.048106 
0.467439 -0.178682 3.048092 
0.463330 -0.187769 2.532612 
0.187749 -0.463336 2.532639 
0.194330 -0.460738 0.405799 
0.451580 -0.214758 0.399336 
0.462013 -0.191958 0.595243 
0.192008 -0.461976 0.595217 
0.469184 -0.171982 2.370217 
0.171928 -0.469205 2.370230 
0.179648 -0.467020 1.000936 
0.467083 -0.179574 1.000942 
0.462121 -0.191845 3.269036 
0.189536 -0.463058 3.269032 
0.164698 -0.471606 1.797479 
0.471542 -0.164769 1.797496 
0.200785 -0.458199 2.784415 
0.458207 -0.200805 2.784423 
0.316109 -0.386862 0.151723 
0.316021 -0.386904 3.859553 
0.352500 -0.355094 3.330838 
0.353807 -0.353748 1.122068 
0.443584 -0.229791 2.248584 
0.229723 -0.443629 2.248590 
0.491048 -0.095738 1.105997 
0.095802 -0.491006 1.105963 
0.097996 -0.489882 3.903232 
0.485830 -0.116460 0.128464 
0.353118 -0.353182 2.041934 
0.353683 -0.353644 1.258021 
0.485241 -0.119808 0.263069 
0.490850 -0.096884 2.908056 
0.096838 -0.490856 2.908078 
0.091549 -0.491144 0.106113 
0.482606 -0.129120 3.872377 
-0.353122 -0.353946 0.701881 
-0.364586 -0.342187 0.327190 
-0.353239 -0.353843 0.568112 
-0.353469 -0.353623 1.333440 
-0.353937 -0.353216 1.697436 
-0.353077 -0.353978 0.870805 
-0.354035 -0.353130 1.881101 
-0.368888 -0.337515 2.632803 
-0.353708 -0.353421 2.450790 
-0.354042 -0.353117 2.067335 
-0.350578 -0.356470 2.941552 
-0.353105 -0.353952 3.179497 
-0.362965 -0.343897 3.645418 
-0.355695 -0.351367 3.466011 
-0.460908 -0.194218 3.810113 
-0.470433 -0.169804 0.226665 
-0.271718 -0.419656 3.845815 
-0.257741 -0.428381 0.181788 
-0.475486 -0.154794 3.656761 
-0.171183 -0.469711 3.706597 
-0.454586 -0.207970 3.472169 
-0.216226 -0.450890 3.475315 
-0.222437 -0.447690 1.609132 
-0.448215 -0.221887 1.608946 
-0.208025 -0.454797 1.014650 
-0.454102 -0.208848 1.014586 
-0.453768 -0.210469 2.174369 
-0.211314 -0.452990 2.174262 
-0.465671 -0.181491 0.809674 
-0.180545 -0.466424 0.809514 
-0.194919 -0.460391 1.443338 
-0.460546 -0.194787 1.443079 
-0.197884 -0.458987 2.021533 
-0.459869 -0.196921 2.021543 
-0.183982 -0.464940 2.603309 
-0.467806 -0.176465 2.594401 
-0.196695 -0.459835 3.076410 
-0.466677 -0.178915 3.041383 
-0.460650 -0.194370 0.405620 
-0.211281 -0.453183 0.396419 
-0.467216 -0.177663 0.597085 
-0.176956 -0.467756 0.596722 
-0.180898 -0.466192 1.230034 
-0.465856 -0.181331 1.229820 
-0.191131 -0.462164 3.268874 
-0.462478 -0.189545 3.268633 
-0.472047 -0.165607 1.792521 
-0.166489 -0.471271 1.792643 
-0.177044 -0.467750 2.857589 
-0.441557 -0.234343 2.805007 
-0.387333 -0.316307 0.151719 
-0.387508 -0.316092 3.858658 
-0.354518 -0.352549 3.330432 
-0.353937 -0.353211 2.245877 
-0.353216 -0.353852 1.117326 
-0.489741 -0.099732 1.111048 
-0.099075 -0.490247 1.111222 
-0.491304 -0.091508 0.701824 
-0.090673 -0.491925 0.701445 
-0.166108 -0.471486 2.380619 
-0.471930 -0.165637 2.380896 
-0.490616 -0.098053 3.902132 
-0.116631 -0.485987 0.128561 
-0.119076 -0.485514 0.262401 
-0.353729 -0.353388 1.522558 
-0.316575 -0.387037 2.768058 
-0.488394 -0.106070 2.911653 
-0.491857 -0.091622 0.107078 
-0.129713 -0.482669 3.872012 
-0.353223 0.353288 0.704041 
-0.353333 0.353388 0.565497 
-0.342242 0.364639 0.327219 
-0.353681 0.353661 1.464708 
-0.353890 0.353844 1.675656 
-0.353190 0.353241 0.911568 
-0.353434 0.353460 1.257745 
-0.353317 0.353367 2.800208 
-0.353997 0.353929 1.920209 
-0.353760 0.353730 2.393887 
-0.353944 0.353886 2.159547 
-0.353500 0.353508 2.624766 
-0.353214 0.353287 2.989595 
-0.353229 0.353241 3.179345 
-0.343904 0.363021 3.644809 
-0.351003 0.355800 3.465550 
-0.194650 0.460910 3.809763 
-0.170100 0.470439 0.226917 
-0.420219 0.271712 3.844930 
-0.428860 0.257754 0.182506 
-0.154801 0.475499 3.656516 
-0.469935 0.171204 3.705676 
-0.207562 0.454671 3.471897 
-0.450600 0.216340 3.474710 
-0.445204 0.226679 1.001582 
-0.226618 0.445243 1.001534 
-0.183195 0.464780 0.814349 
-0.464732 0.183262 0.814333 
-0.189065 0.463416 2.036671 
-0.463487 0.188997 2.036636 
-0.477394 0.148590 2.588096 
[...]
POINT_DATA 630
SCALARS u float 1
LOOKUP_TABLE default
0.008682
0.009358
0.008817
0.009376
0.008598
0.009175
0.008485
0.009088
0.006966
0.006413
0.007511
0.010677
0.011050
0.010366
0.007126
0.006581
0.007632
0.010537
0.010800
0.010214
0.007072
0.006618
0.007553
0.010323
0.010615
0.009903
0.007033
0.006569
0.007530
0.010227
0.010575
0.009916
0.006110
0.004805
0.005197
0.005850
0.005325
0.003449
0.002490
0.004414
0.006077
0.006442
0.005229
0.003236
0.001841
0.004010
0.005159
0.005137
0.004889
0.004585
0.005947
0.006076
0.004694
0.005175
0.005656
0.005315
0.003354
0.002093
0.004047
0.005819
0.006011
0.005638
0.003635
0.002328
0.003756
0.005226
0.005961
0.004976
0.004295
0.005841
0.006883
0.005511
0.005311
0.005679
0.005048
0.003330
0.002576
0.004557
0.005739
0.006171
0.005416
0.003605
0.002619
0.003791
0.005218
0.005137
0.004946
0.005096
0.006662
0.006754
0.005269
0.005259
0.005586
0.005155
0.003348
0.002544
0.004275
0.005681
0.006355
0.005405
0.003753
0.002400
0.003717
0.004994
0.005578
0.004798
0.005020
0.006603
0.005645
0.002389
0.000364
0.004826
0.006234
0.004469
0.006881
0.003786
0.003050
0.005828
0.001000
0.005027
0.004961
0.000844
0.004587
0.003881
0.003645
0.002748
0.003673
0.002697
0.001080
0.001409
0.006624
0.006607
0.001875
0.001354
0.005757
0.005578
0.003716
0.004034
0.002541
0.002622
0.003080
0.003144
0.005760
0.005575
0.004413
0.004703
0.006214
0.005996
0.005530
0.005317
0.006263
0.006005
0.003171
0.003060
0.003851
0.003804
0.002729
0.004298
0.006233
0.005915
0.004923
0.005072
0.006517
0.006157
0.005882
0.005548
0.006946
0.006273
0.001545
0.001298
0.005670
0.004996
0.005355
0.006031
0.007358
0.004840
0.004484
0.003461
0.005829
0.003814
0.005246
0.004357
0.003292
0.004413
0.004903
0.006842
0.005804
0.007738
0.007513
0.008858
0.008767
0.005826
0.007110
0.005197
0.005856
0.004380
0.004080
0.003411
0.003309
0.005305
0.005281
0.003385
0.003022
0.005705
0.005954
0.005092
0.004760
0.003390
0.003146
0.006113
0.006570
0.005268
0.005584
0.004252
0.004362
0.004831
0.004645
0.004857
0.005288
0.005753
0.005698
0.003907
0.003850
0.009134
0.008922
0.005202
0.003721
0.004974
0.005119
0.004031
0.004147
0.008072
0.008691
0.005791
0.003271
0.007258
0.004298
0.004582
0.008174
0.008535
0.005899
0.000812
0.004341
0.001135
0.005171
0.006446
0.006483
0.001203
0.002067
0.006616
0.005476
0.006061
0.000705
0.003217
0.004633
0.004455
0.003934
0.003383
0.003571
0.002878
0.003895
0.003438
0.003905
0.004027
0.005525
0.005396
0.005773
0.005891
0.006139
0.006205
0.001466
0.001881
0.006625
0.006603
0.001368
0.001735
0.006117
0.005845
0.003334
0.002285
0.004896
0.004849
0.002932
0.003040
0.005527
0.005358
0.005980
0.005983
0.004556
0.003824
0.003956
0.004256
0.005086
0.005197
0.004554
0.004247
0.004332
0.005526
0.005689
0.003543
0.003595
0.006953
0.005705
0.003843
0.002452
0.003424
0.004682
0.006991
0.005541
0.005476
0.005843
0.007246
0.003812
0.005168
0.004881
0.003265
0.003699
0.005895
0.004003
0.005441
0.003034
0.004366
0.004855
0.006864
0.005540
0.007758
0.007427
0.008846
0.008762
0.006051
0.006844
0.005621
0.004900
0.004407
0.004691
0.005353
0.005081
0.005955
0.005874
0.002852
0.002498
0.004675
0.004987
0.006232
0.006678
0.005547
0.005569
0.003712
0.003847
0.005259
0.004978
0.003327
0.003222
0.004257
0.004284
0.006045
0.005956
0.004070
0.003529
0.004039
0.003848
0.008951
0.008926
0.005532
0.004170
0.004989
0.004868
0.005616
0.005392
0.005935
0.006116
0.008091
0.008602
0.003259
0.003096
0.007140
0.008122
0.008433
0.006761
0.007783
0.008125
0.008018
0.007712
0.006774
0.007618
0.007970
0.006698
0.006933
0.009229
0.008699
0.006815
0.009171
0.006710
0.006893
0.009379
0.006864
0.007024
0.006918
0.007141
0.006859
0.007835
0.008203
0.008211
0.007940
0.006770
0.007805
0.008214
0.006820
0.006842
0.009459
0.008890
0.006723
0.009523
0.006780
0.006972
0.009666
0.007019
0.007152
0.007059
0.007183
0.004358
0.006046
0.005625
0.005762
0.006082
0.005629
0.005565
0.003677
0.002185
0.003923
0.003928
0.001446
0.002297
0.002401
0.004496
0.005299
0.005569
0.004372
0.003960
0.003097
0.005703
0.004408
0.006184
0.005966
0.006740
0.005979
0.006139
0.005986
0.004505
0.005314
0.003051
0.004750
0.003519
0.003619
0.003031
0.004543
0.003219
0.001887
0.004697
0.006043
0.006288
0.005154
0.005874
0.005737
0.005822
0.000618
0.005864
0.002380
0.002302
0.002217
0.001636
0.004312
0.002333
0.002272
0.002289
0.004518
0.004098
0.004340
0.004082
0.003317
0.003988
0.003891
0.005646
0.001731
0.005302
0.005157
0.005199
0.003491
0.005413
0.005387
0.003575
0.004638
0.003111
0.002566
0.003628
0.005644
0.004644
0.004508
0.004419
0.005388
0.004871
0.004854
0.001928
0.005377
0.004989
0.005086
0.005839
0.004999
0.003450
0.003469
0.003382
0.003269
0.006479
0.005696
0.005957
0.002551
0.006200
0.003121
0.000542
0.003683
0.003110
0.001614
0.000433
0.002394
0.000877
0.004358
0.006046
0.005625
0.005762
0.006082
0.005629
0.005565
0.003677
0.002185
0.003923
0.003928
0.001446
0.002297
0.002401
0.004496
0.005299
0.005569
0.004372
0.003960
0.003097
0.005703
0.004408
0.006184
0.005966
0.006740
0.005979
0.006139
0.005986
0.004505
0.005314
0.003051
0.004750
0.003519
0.003619
0.003031
0.004543
0.003219
0.001887
0.004697
0.006043
0.006288
0.005154
0.005874
0.005737
0.005822
0.000618
0.005864
0.002380
0.002302
0.002217
0.001636
0.004312
0.002333
0.002272
0.002289
0.004518
0.004098
0.004340
0.004082
0.003317
0.003988
0.003891
0.005646
0.001731
0.005302
0.005157
0.005199
0.003491
0.005413
0.005387
0.003575
0.004638
0.003111
0.002566
0.003628
0.005644
0.004644
0.004508
0.004419
0.005388
0.004871
0.004854
0.001928
0.005377
0.004989
0.005086
0.005839
0.004999
0.003450
0.003469
0.003382
0.003269
0.006479
0.005696
0.005957
0.002551
0.006200
0.003121
0.000542
0.003683
0.003110
0.001614
0.000433
0.002394
0.000877
