# vtk DataFile Version 2.0
Unstructured Grid Example
ASCII
DATASET UNSTRUCTURED_GRID
POINTS 630 float
0.000452 0.499565 -0.000529 
0.500505 -0.000389 0.000613 
0.000476 -0.500437 0.000526 
-0.499498 -0.000407 -0.000606 
0.000466 0.499563 4.000502 
0.500497 -0.000410 3.999419 
0.000462 -0.500428 3.999504 
-0.499508 -0.000407 4.000574 
0.191789 0.461531 -0.000257 
0.354013 0.353162 0.000052 
0.462420 0.190958 0.000355 
0.462456 -0.191743 0.000768 
0.354064 -0.353985 0.000802 
0.191835 -0.462381 0.000722 
-0.190877 -0.462359 0.000248 
-0.353081 -0.353955 -0.000056 
-0.461450 -0.191737 -0.000351 
-0.461441 0.190923 -0.000753 
-0.353066 0.353118 -0.000784 
-0.190876 0.461496 -0.000720 
0.191803 0.461518 4.000236 
0.354022 0.353143 3.999945 
0.462421 0.190937 3.999663 
0.462439 -0.191758 3.999272 
0.354045 -0.353983 3.999238 
0.191817 -0.462372 3.999320 
-0.190884 -0.462356 3.999757 
-0.353085 -0.353957 4.000050 
-0.461458 -0.191742 4.000336 
-0.461449 0.190924 4.000720 
-0.353067 0.353123 4.000760 
-0.190867 0.461501 4.000678 
0.000178 0.499796 0.199490 
-0.000116 0.500027 0.399562 
-0.000344 0.500205 0.599716 
-0.000451 0.500294 0.799875 
-0.000419 0.500273 1.000053 
-0.000231 0.500145 1.200179 
0.000028 0.499963 1.400231 
0.000285 0.499772 1.600201 
0.000453 0.499658 1.800090 
0.000489 0.499639 1.999965 
0.000384 0.499718 2.199868 
0.000196 0.499844 2.399825 
-0.000031 0.500000 2.599829 
-0.000281 0.500201 2.799846 
-0.000405 0.500269 2.999957 
-0.000388 0.500271 3.200107 
-0.000298 0.500184 3.400302 
-0.000074 0.500011 3.600427 
0.000202 0.499781 3.800477 
0.000198 -0.500209 0.200497 
-0.000106 -0.499969 0.400430 
-0.000341 -0.499796 0.600286 
-0.000443 -0.499718 0.800100 
-0.000419 -0.499724 0.999971 
-0.000244 -0.499857 1.199857 
0.000012 -0.500037 1.399806 
0.000261 -0.500219 1.599827 
0.000434 -0.500325 1.799908 
0.000458 -0.500335 1.999986 
0.000416 -0.500310 2.200121 
0.000214 -0.500169 2.400209 
-0.000030 -0.499972 2.600216 
-0.000269 -0.499812 2.800134 
-0.000413 -0.499729 3.000003 
-0.000448 -0.499704 3.199829 
-0.000293 -0.499808 3.399687 
-0.000072 -0.500007 3.599601 
0.000200 -0.500220 3.799535 
0.500235 -0.000147 0.200588 
0.499966 0.000113 0.400507 
0.499769 0.000303 0.600326 
0.499662 0.000388 0.800152 
0.499682 0.000352 0.999954 
0.499827 0.000189 1.199818 
0.500027 -0.000028 1.399760 
0.500268 -0.000248 1.599771 
0.500377 -0.000377 1.799900 
0.500419 -0.000403 2.000043 
0.500344 -0.000341 2.200165 
0.500185 -0.000174 2.400228 
0.499982 0.000040 2.600244 
0.499790 0.000241 2.800162 
0.499672 0.000367 3.000029 
0.499689 0.000349 3.199871 
0.499802 0.000255 3.399662 
0.499990 0.000066 3.599523 
0.500245 -0.000178 3.799448 
-0.499759 -0.000166 0.199433 
-0.500037 0.000096 0.399513 
-0.500236 0.000294 0.599676 
-0.500325 0.000389 0.799854 
-0.500323 0.000364 1.000030 
-0.500172 0.000201 1.200174 
-0.499966 -0.000016 1.400237 
-0.499749 -0.000235 1.600213 
-0.499632 -0.000376 1.800105 
-0.499569 -0.000418 1.999992 
-0.499657 -0.000354 2.199868 
-0.499793 -0.000177 2.399773 
-0.500028 0.000039 2.599778 
-0.500207 0.000228 2.799830 
-0.500293 0.000370 2.999996 
-0.500324 0.000376 3.200176 
-0.500216 0.000251 3.400310 
-0.500016 0.000076 3.600468 
-0.499751 -0.000180 3.800543 
0.354185 0.352873 0.677927 
0.354761 0.352375 0.208765 
0.353564 0.353541 1.385387 
0.353893 0.353249 1.658915 
0.353332 0.353734 0.913178 
0.353236 0.353832 1.116530 
0.354034 0.353115 1.916358 
0.353291 0.353796 2.800012 
0.353772 0.353367 2.393611 
0.353971 0.353195 2.158241 
0.353490 0.353618 2.624499 
0.353204 0.353875 2.938321 
0.340455 0.366167 3.350653 
0.353508 0.353597 3.624850 
0.457806 0.201389 3.806417 
0.201784 0.457358 3.806943 
0.473065 0.161979 3.648596 
0.161940 0.473025 3.649197 
0.468438 0.174976 0.319003 
0.177641 0.467344 0.318341 
0.191356 0.461913 1.393327 
0.461960 0.191322 1.393099 
0.189088 0.462677 2.034963 
0.463519 0.188171 2.035037 
0.477396 0.148644 2.587986 
0.148592 0.477399 2.587686 
0.149704 0.477230 3.006978 
0.476564 0.150536 3.007056 
0.186252 0.464093 3.472337 
0.463730 0.186709 3.471900 
0.191161 0.462070 1.249289 
0.461789 0.191497 1.249078 
0.191551 0.461759 1.539817 
0.462138 0.191165 1.539595 
0.452033 0.213280 3.229286 
0.163972 0.472522 3.253034 
0.193245 0.461237 0.545554 
0.461733 0.191528 0.546343 
0.178424 0.467251 0.783101 
0.466844 0.178472 0.783318 
0.176165 0.468096 1.022740 
0.467517 0.176722 1.022707 
0.177267 0.467319 1.776905 
0.468091 0.176413 1.776777 
0.465516 0.182778 2.396163 
0.183175 0.465154 2.395928 
0.191064 0.462163 2.799417 
0.461699 0.191589 2.799590 
0.357537 0.349512 0.457178 
0.353856 0.353288 3.866480 
0.328263 0.377147 3.144362 
0.413420 0.281025 3.079763 
0.446915 0.224533 2.236649 
0.225229 0.446295 2.236510 
0.091442 0.491283 1.901054 
0.492068 0.090541 1.901016 
0.089902 0.492087 0.901442 
0.491473 0.090470 0.901537 
0.490210 0.099977 3.901225 
0.100606 0.489520 3.902051 
0.421481 0.269059 2.502414 
0.269212 0.421319 2.502271 
0.463469 0.188158 0.121583 
0.189586 0.462509 0.120961 
0.353224 -0.353247 0.785648 
0.353309 -0.353352 0.585890 
0.342243 -0.364625 0.331005 
0.353858 -0.353820 1.672637 
0.353226 -0.353286 0.977758 
0.353605 -0.353617 1.424126 
0.353972 -0.353905 1.894576 
0.353338 -0.353361 2.799811 
0.353913 -0.353856 2.192069 
0.353755 -0.353716 2.421245 
0.353523 -0.353527 2.607804 
0.353239 -0.353282 2.989574 
0.353230 -0.353289 3.179301 
0.343922 -0.363020 3.644843 
0.350985 -0.355808 3.465554 
0.194645 -0.460896 3.809797 
0.170083 -0.470431 0.227696 
0.420212 -0.271695 3.844964 
0.428307 -0.258642 0.183009 
0.154811 -0.475511 3.656566 
0.469933 -0.171202 3.705681 
0.207549 -0.454690 3.471968 
0.450572 -0.216336 3.474643 
0.447816 -0.223080 1.583305 
0.223092 -0.447785 1.583335 
0.459688 -0.196258 1.242046 
0.196215 -0.459730 1.242065 
0.190954 -0.461676 0.793406 
0.461626 -0.191010 0.793431 
0.473077 -0.162206 1.449771 
0.162199 -0.473070 1.449804 
0.226240 -0.446434 2.060693 
0.446516 -0.226197 2.060685 
0.177602 -0.466970 3.048059 
0.466800 -0.178020 3.048078 
0.463442 -0.187847 2.533254 
0.187866 -0.463436 2.533228 
0.194180 -0.460708 0.406972 
0.451537 -0.214642 0.400601 
0.461575 -0.191465 0.596020 
0.191418 -0.461610 0.596045 
0.469637 -0.172385 2.370774 
0.172437 -0.469617 2.370761 
0.178863 -0.466524 1.000828 
0.466464 -0.178933 1.000822 
0.461584 -0.191302 3.268489 
0.188822 -0.462618 3.268447 
0.165561 -0.472262 1.797229 
0.472323 -0.165494 1.797214 
0.200308 -0.457851 2.784886 
0.457807 -0.200372 2.784879 
0.316725 -0.387401 0.153290 
0.316661 -0.387482 3.858057 
0.351937 -0.354695 3.330105 
0.353311 -0.353368 1.121709 
0.444228 -0.230373 2.248999 
0.230437 -0.444185 2.248993 
0.490565 -0.095211 1.105686 
0.095151 -0.490606 1.105718 
0.098707 -0.490562 3.902019 
0.486526 -0.116962 0.129910 
0.353969 -0.353908 2.041996 
0.353430 -0.353467 1.257468 
0.485575 -0.119980 0.264422 
0.490330 -0.096286 2.908309 
0.096130 -0.490364 2.908286 
0.092238 -0.491804 0.107375 
0.483306 -0.129677 3.870989 
-0.353965 -0.353179 0.701824 
-0.364559 -0.342173 0.327036 
-0.353854 -0.353277 0.568024 
-0.353634 -0.353487 1.333490 
-0.353187 -0.353876 1.697492 
-0.354008 -0.353148 0.870785 
-0.353093 -0.353958 1.881128 
-0.369041 -0.337364 2.632713 
-0.353406 -0.353680 2.450756 
-0.353087 -0.353970 2.067342 
-0.351365 -0.355761 2.941527 
-0.353981 -0.353173 3.179530 
-0.362973 -0.343865 3.645551 
-0.356157 -0.350961 3.466105 
-0.460419 -0.194588 3.810766 
-0.470056 -0.170040 0.225927 
-0.271177 -0.420142 3.845592 
-0.257297 -0.428783 0.182053 
-0.475391 -0.154783 3.657445 
-0.171061 -0.469897 3.706087 
-0.454997 -0.207540 3.472631 
-0.216709 -0.450538 3.475022 
-0.221876 -0.448177 1.608996 
-0.447675 -0.222401 1.609173 
-0.208881 -0.454159 1.014589 
-0.454822 -0.208094 1.014650 
-0.452971 -0.211245 2.174262 
-0.210438 -0.453713 2.174364 
-0.466455 -0.180616 0.809496 
-0.181520 -0.465736 0.809649 
-0.194791 -0.460545 1.443137 
-0.460397 -0.194916 1.443385 
-0.196883 -0.459786 2.021561 
-0.458944 -0.197802 2.021551 
-0.184062 -0.464870 2.603552 
-0.467873 -0.176385 2.594082 
-0.197647 -0.459136 3.076337 
-0.467425 -0.178067 3.041419 
-0.460793 -0.194142 0.405034 
-0.211498 -0.453051 0.396780 
-0.467766 -0.177015 0.596666 
-0.177690 -0.467250 0.597013 
-0.181348 -0.465894 1.229861 
-0.466215 -0.180935 1.230065 
-0.191983 -0.461543 3.268691 
-0.463172 -0.188814 3.268875 
-0.471236 -0.166418 1.792669 
-0.165576 -0.471977 1.792553 
-0.177731 -0.467209 2.857702 
-0.442071 -0.233836 2.804846 
-0.386773 -0.316754 0.151450 
-0.386906 -0.316593 3.858912 
-0.355245 -0.351890 3.330502 
-0.353187 -0.353881 2.245863 
-0.353875 -0.353268 1.117358 
-0.490276 -0.099135 1.111230 
-0.099762 -0.489793 1.111064 
-0.491936 -0.090750 0.701413 
-0.091547 -0.491343 0.701774 
-0.165608 -0.471888 2.380859 
-0.471465 -0.166057 2.380595 
-0.489862 -0.098653 3.903070 
-0.116033 -0.486561 0.129290 
-0.118890 -0.485755 0.263079 
-0.353386 -0.353711 1.522615 
-0.317065 -0.386591 2.768063 
-0.488981 -0.105395 2.911513 
-0.491121 -0.092178 0.106088 
-0.129111 -0.483246 3.871338 
-0.353869 0.353807 0.703381 
-0.353764 0.353711 0.564503 
-0.342120 0.364509 0.325828 
-0.353431 0.353451 1.465369 
-0.353232 0.353276 1.676149 
-0.353900 0.353852 0.911448 
-0.353668 0.353642 1.258303 
-0.353779 0.353732 2.799801 
-0.353130 0.353194 1.920299 
-0.353356 0.353385 2.393324 
-0.353180 0.353236 2.159226 
-0.353605 0.353597 2.624195 
-0.353878 0.353808 2.989572 
-0.353863 0.353851 3.179675 
-0.343858 0.362919 3.646132 
-0.351308 0.356058 3.466545 
-0.194175 0.460418 3.811099 
-0.169758 0.470050 0.225576 
-0.419604 0.271182 3.846437 
-0.428315 0.257303 0.180966 
-0.154776 0.475378 3.657680 
-0.469683 0.171041 3.706966 
-0.207930 0.454916 3.472890 
-0.450814 0.216601 3.475596 
-0.445789 0.227297 1.001637 
-0.227355 0.445752 1.001683 
-0.184024 0.465334 0.814070 
-0.465379 0.183960 0.814086 
-0.188152 0.462733 2.036504 
-0.462666 0.188217 2.036537 
-0.477413 0.148636 2.587547 
[...]
POINT_DATA 630
SCALARS u float 1
LOOKUP_TABLE default
0.008682
0.009358
0.008817
0.009376
0.008598
0.009175
0.008485
0.009088
0.006966
0.006413
0.007511
0.010677
0.011050
0.010366
0.007126
0.006581
0.007632
0.010537
0.010800
0.010214
0.007072
0.006618
0.007553
0.010323
0.010615
0.009903
0.007033
0.006569
0.007530
0.010227
0.010575
0.009916
0.006110
0.004805
0.005197
0.005850
0.005325
0.003449
0.002490
0.004414
0.006077
0.006442
0.005229
0.003236
0.001841
0.004010
0.005159
0.005137
0.004889
0.004585
0.005947
0.006076
0.004694
0.005175
0.005656
0.005315
0.003354
0.002093
0.004047
0.005819
0.006011
0.005638
0.003635
0.002328
0.003756
0.005226
0.005961
0.004976
0.004295
0.005841
0.006883
0.005511
0.005311
0.005679
0.005048
0.003330
0.002576
0.004557
0.005739
0.006171
0.005416
0.003605
0.002619
0.003791
0.005218
0.005137
0.004946
0.005096
0.006662
0.006754
0.005269
0.005259
0.005586
0.005155
0.003348
0.002544
0.004275
0.005681
0.006355
0.005405
0.003753
0.002400
0.003717
0.004994
0.005578
0.004798
0.005020
0.006603
0.005645
0.002389
0.000364
0.004826
0.006234
0.004469
0.006881
0.003786
0.003050
0.005828
0.001000
0.005027
0.004961
0.000844
0.004587
0.003881
0.003645
0.002748
0.003673
0.002697
0.001080
0.001409
0.006624
0.006607
0.001875
0.001354
0.005757
0.005578
0.003716
0.004034
0.002541
0.002622
0.003080
0.003144
0.005760
0.005575
0.004413
0.004703
0.006214
0.005996
0.005530
0.005317
0.006263
0.006005
0.003171
0.003060
0.003851
0.003804
0.002729
0.004298
0.006233
0.005915
0.004923
0.005072
0.006517
0.006157
0.005882
0.005548
0.006946
0.006273
0.001545
0.001298
0.005670
0.004996
0.005355
0.006031
0.007358
0.004840
0.004484
0.003461
0.005829
0.003814
0.005246
0.004357
0.003292
0.004413
0.004903
0.006842
0.005804
0.007738
0.007513
0.008858
0.008767
0.005826
0.007110
0.005197
0.005856
0.004380
0.004080
0.003411
0.003309
0.005305
0.005281
0.003385
0.003022
0.005705
0.005954
0.005092
0.004760
0.003390
0.003146
0.006113
0.006570
0.005268
0.005584
0.004252
0.004362
0.004831
0.004645
0.004857
0.005288
0.005753
0.005698
0.003907
0.003850
0.009134
0.008922
0.005202
0.003721
0.004974
0.005119
0.004031
0.004147
0.008072
0.008691
0.005791
0.003271
0.007258
0.004298
0.004582
0.008174
0.008535
0.005899
0.000812
0.004341
0.001135
0.005171
0.006446
0.006483
0.001203
0.002067
0.006616
0.005476
0.006061
0.000705
0.003217
0.004633
0.004455
0.003934
0.003383
0.003571
0.002878
0.003895
0.003438
0.003905
0.004027
0.005525
0.005396
0.005773
0.005891
0.006139
0.006205
0.001466
0.001881
0.006625
0.006603
0.001368
0.001735
0.006117
0.005845
0.003334
0.002285
0.004896
0.004849
0.002932
0.003040
0.005527
0.005358
0.005980
0.005983
0.004556
0.003824
0.003956
0.004256
0.005086
0.005197
0.004554
0.004247
0.004332
0.005526
0.005689
0.003543
0.003595
0.006953
0.005705
0.003843
0.002452
0.003424
0.004682
0.006991
0.005541
0.005476
0.005843
0.007246
0.003812
0.005168
0.004881
0.003265
0.003699
0.005895
0.004003
0.005441
0.003034
0.004366
0.004855
0.006864
0.005540
0.007758
0.007427
0.008846
0.008762
0.006051
0.006844
0.005621
0.004900
0.004407
0.004691
0.005353
0.005081
0.005955
0.005874
0.002852
0.002498
0.004675
0.004987
0.006232
0.006678
0.005547
0.005569
0.003712
0.003847
0.005259
0.004978
0.003327
0.003222
0.004257
0.004284
0.006045
0.005956
0.004070
0.003529
0.004039
0.003848
0.008951
0.008926
0.005532
0.004170
0.004989
0.004868
0.005616
0.005392
0.005935
0.006116
0.008091
0.008602
0.003259
0.003096
0.007140
0.008122
0.008433
0.006761
0.007783
0.008125
0.008018
0.007712
0.006774
0.007618
0.007970
0.006698
0.006933
0.009229
0.008699
0.006815
0.009171
0.006710
0.006893
0.009379
0.006864
0.007024
0.006918
0.007141
0.006859
0.007835
0.008203
0.008211
0.007940
0.006770
0.007805
0.008214
0.006820
0.006842
0.009459
0.008890
0.006723
0.009523
0.006780
0.006972
0.009666
0.007019
0.007152
0.007059
0.007183
0.004358
0.006046
0.005625
0.005762
0.006082
0.005629
0.005565
0.003677
0.002185
0.003923
0.003928
0.001446
0.002297
0.002401
0.004496
0.005299
0.005569
0.004372
0.003960
0.003097
0.005703
0.004408
0.006184
0.005966
0.006740
0.005979
0.006139
0.005986
0.004505
0.005314
0.003051
0.004750
0.003519
0.003619
0.003031
0.004543
0.003219
0.001887
0.004697
0.006043
0.006288
0.005154
0.005874
0.005737
0.005822
0.000618
0.005864
0.002380
0.002302
0.002217
0.001636
0.004312
0.002333
0.002272
0.002289
0.004518
0.004098
0.004340
0.004082
0.003317
0.003988
0.003891
0.005646
0.001731
0.005302
0.005157
0.005199
0.003491
0.005413
0.005387
0.003575
0.004638
0.003111
0.002566
0.003628
0.005644
0.004644
0.004508
0.004419
0.005388
0.004871
0.004854
0.001928
0.005377
0.004989
0.005086
0.005839
0.004999
0.003450
0.003469
0.003382
0.003269
0.006479
0.005696
0.005957
0.002551
0.006200
0.003121
0.000542
0.003683
0.003110
0.001614
0.000433
0.002394
0.000877
0.004358
0.006046
0.005625
0.005762
0.006082
0.005629
0.005565
0.003677
0.002185
0.003923
0.003928
0.001446
0.002297
0.002401
0.004496
0.005299
0.005569
0.004372
0.003960
0.003097
0.005703
0.004408
0.006184
0.005966
0.006740
0.005979
0.006139
0.005986
0.004505
0.005314
0.003051
0.004750
0.003519
0.003619
0.003031
0.004543
0.003219
0.001887
0.004697
0.006043
0.006288
0.005154
0.005874
0.005737
0.005822
0.000618
0.005864
0.002380
0.002302
0.002217
0.001636
0.004312
0.002333
0.002272
0.002289
0.004518
0.004098
0.004340
0.004082
0.003317
0.003988
0.003891
0.005646
0.001731
0.005302
0.005157
0.005199
0.003491
0.005413
0.005387
0.003575
0.004638
0.003111
0.002566
0.003628
0.005644
0.004644
0.004508
0.004419
0.005388
0.004871
0.004854
0.001928
0.005377
0.004989
0.005086
0.005839
0.004999
0.003450
0.003469
0.003382
0.003269
0.006479
0.005696
0.005957
0.002551
0.006200
0.003121
0.000542
0.003683
0.003110
0.001614
0.000433
0.002394
0.000877
