# vtk DataFile Version 2.0
Unstructured Grid Example
ASCII
DATASET UNSTRUCTURED_GRID
POINTS 630 float
0.000258 0.499751 -0.000303 
0.500289 -0.000223 0.000351 
0.000272 -0.500250 0.000301 
-0.499713 -0.000233 -0.000347 
0.000266 0.499750 4.000287 
0.500284 -0.000234 3.999668 
0.000264 -0.500245 3.999716 
-0.499718 -0.000233 4.000329 
0.191598 0.461706 -0.000147 
0.353816 0.353329 0.000030 
0.462214 0.191122 0.000203 
0.462235 -0.191572 0.000440 
0.353845 -0.353800 0.000459 
0.191624 -0.462192 0.000413 
-0.191076 -0.462180 0.000142 
-0.353283 -0.353783 -0.000032 
-0.461659 -0.191568 -0.000201 
-0.461654 0.191102 -0.000431 
-0.353274 0.353304 -0.000448 
-0.191075 0.461686 -0.000412 
0.191606 0.461699 4.000135 
0.353821 0.353318 3.999968 
0.462215 0.191110 3.999807 
0.462225 -0.191580 3.999584 
0.353835 -0.353799 3.999564 
0.191614 -0.462187 3.999611 
-0.191080 -0.462178 3.999861 
-0.353285 -0.353785 4.000028 
-0.461664 -0.191571 4.000192 
-0.461659 0.191103 4.000412 
-0.353275 0.353307 4.000435 
-0.191070 0.461688 4.000388 
0.000102 0.499883 0.199708 
-0.000066 0.500015 0.399749 
-0.000197 0.500117 0.599838 
-0.000258 0.500168 0.799929 
-0.000240 0.500156 1.000030 
-0.000132 0.500083 1.200102 
0.000016 0.499979 1.400132 
0.000163 0.499870 1.600115 
0.000259 0.499805 1.800052 
0.000280 0.499793 1.999980 
0.000220 0.499839 2.199925 
0.000112 0.499911 2.399900 
-0.000018 0.500000 2.599902 
-0.000161 0.500115 2.799912 
-0.000231 0.500154 2.999975 
-0.000222 0.500155 3.200061 
-0.000170 0.500105 3.400173 
-0.000042 0.500007 3.600244 
0.000115 0.499874 3.800273 
0.000113 -0.500119 0.200284 
-0.000061 -0.499983 0.400246 
-0.000195 -0.499884 0.600163 
-0.000253 -0.499839 0.800057 
-0.000239 -0.499842 0.999984 
-0.000140 -0.499918 1.199918 
0.000007 -0.500021 1.399889 
0.000149 -0.500125 1.599901 
0.000248 -0.500186 1.799947 
0.000262 -0.500192 1.999992 
0.000238 -0.500177 2.200069 
0.000122 -0.500097 2.400120 
-0.000017 -0.499984 2.600124 
-0.000154 -0.499892 2.800077 
-0.000236 -0.499845 3.000002 
-0.000256 -0.499831 3.199902 
-0.000168 -0.499890 3.399821 
-0.000041 -0.500004 3.599771 
0.000115 -0.500126 3.799734 
0.500135 -0.000084 0.200337 
0.499981 0.000064 0.400290 
0.499868 0.000174 0.600187 
0.499806 0.000222 0.800087 
0.499818 0.000202 0.999974 
0.499901 0.000108 1.199896 
0.500015 -0.000016 1.399863 
0.500153 -0.000142 1.599869 
0.500216 -0.000216 1.799943 
0.500240 -0.000231 2.000024 
0.500197 -0.000195 2.200094 
0.500106 -0.000099 2.400130 
0.499990 0.000023 2.600139 
0.499880 0.000138 2.800093 
0.499812 0.000210 3.000017 
0.499822 0.000200 3.199926 
0.499887 0.000146 3.399807 
0.499994 0.000038 3.599727 
0.500140 -0.000102 3.799684 
-0.499862 -0.000095 0.199675 
-0.500021 0.000055 0.399721 
-0.500135 0.000168 0.599814 
-0.500186 0.000223 0.799917 
-0.500185 0.000208 1.000017 
-0.500098 0.000115 1.200099 
-0.499981 -0.000009 1.400136 
-0.499857 -0.000134 1.600122 
-0.499789 -0.000215 1.800060 
-0.499753 -0.000239 1.999995 
-0.499804 -0.000203 2.199924 
-0.499882 -0.000101 2.399870 
-0.500016 0.000022 2.599873 
-0.500118 0.000130 2.799903 
-0.500168 0.000212 2.999998 
-0.500186 0.000215 3.200101 
-0.500124 0.000144 3.400177 
-0.500009 0.000044 3.600268 
-0.499858 -0.000103 3.800311 
0.354355 0.352722 0.677914 
0.354688 0.352434 0.208743 
0.353560 0.353546 1.385399 
0.353748 0.353379 1.658919 
0.353519 0.353565 0.913178 
0.353372 0.353713 1.116539 
0.353828 0.353303 1.916351 
0.353403 0.353692 2.800007 
0.353679 0.353447 2.393602 
0.353793 0.353348 2.158237 
0.353517 0.353591 2.624488 
0.353353 0.353737 2.938317 
0.340605 0.366034 3.350658 
0.353528 0.353579 3.624871 
0.457704 0.201468 3.806550 
0.201694 0.457448 3.806852 
0.473055 0.161970 3.648742 
0.161948 0.473032 3.649087 
0.468418 0.174966 0.318856 
0.177646 0.467357 0.318450 
0.191350 0.461924 1.393285 
0.461951 0.191331 1.393155 
0.188878 0.462844 2.034972 
0.463326 0.188354 2.035015 
0.477399 0.148631 2.587911 
0.148601 0.477401 2.587739 
0.149895 0.477098 3.006995 
0.476717 0.150371 3.007040 
0.186355 0.464018 3.472258 
0.463811 0.186617 3.472008 
0.191238 0.462014 1.249251 
0.461853 0.191430 1.249130 
0.191462 0.461836 1.539779 
0.462053 0.191240 1.539652 
0.452194 0.213116 3.229321 
0.164148 0.472386 3.252998 
0.193379 0.461142 0.545624 
0.461839 0.191405 0.546244 
0.178625 0.467101 0.783126 
0.467005 0.178295 0.783276 
0.176343 0.467961 1.022731 
0.467666 0.176567 1.022718 
0.177073 0.467480 1.776880 
0.467921 0.176584 1.776807 
0.465433 0.182857 2.396105 
0.183084 0.465226 2.395970 
0.191183 0.462067 2.799448 
0.461802 0.191483 2.799547 
0.357616 0.349437 0.457159 
0.353727 0.353402 3.866504 
0.328454 0.376983 3.144362 
0.413591 0.280857 3.079764 
0.446775 0.224670 2.236614 
0.225068 0.446420 2.236534 
0.091233 0.491443 1.901045 
0.491893 0.090718 1.901024 
0.090096 0.491950 0.901454 
0.491621 0.090303 0.901516 
0.490053 0.100103 3.901421 
0.100463 0.489658 3.901893 
0.421443 0.269088 2.502374 
0.269175 0.421350 2.502292 
0.463331 0.188261 0.121432 
0.189463 0.462625 0.121071 
0.353365 -0.353378 0.785549 
0.353413 -0.353438 0.585688 
0.342216 -0.364603 0.330710 
0.353728 -0.353706 1.672728 
0.353366 -0.353400 0.977766 
0.353583 -0.353590 1.424261 
0.353793 -0.353754 1.894607 
0.353430 -0.353444 2.799719 
0.353759 -0.353726 2.192001 
0.353669 -0.353646 2.421108 
0.353536 -0.353538 2.607672 
0.353374 -0.353398 2.989556 
0.353368 -0.353402 3.179387 
0.343904 -0.362998 3.645118 
0.351060 -0.355861 3.465770 
0.194543 -0.460794 3.810075 
0.170007 -0.470352 0.227413 
0.420080 -0.271586 3.845279 
0.428189 -0.258553 0.182687 
0.154801 -0.475479 3.656799 
0.469879 -0.171168 3.705961 
0.207635 -0.454736 3.472155 
0.450631 -0.216395 3.474865 
0.447717 -0.222987 1.583419 
0.222994 -0.447700 1.583436 
0.459744 -0.196311 1.242160 
0.196287 -0.459768 1.242171 
0.191120 -0.461789 0.793330 
0.461760 -0.191152 0.793345 
0.473039 -0.162168 1.449897 
0.162164 -0.473035 1.449916 
0.226060 -0.446291 2.060673 
0.446338 -0.226035 2.060668 
0.177771 -0.467087 3.048068 
0.466933 -0.178158 3.048081 
0.463419 -0.187831 2.533120 
0.187841 -0.463415 2.533105 
0.194212 -0.460715 0.406727 
0.451546 -0.214666 0.400337 
0.461666 -0.191568 0.595858 
0.191541 -0.461686 0.595872 
0.469542 -0.172301 2.370657 
0.172331 -0.469531 2.370650 
0.179027 -0.466628 1.000850 
0.466593 -0.179067 1.000847 
0.461696 -0.191415 3.268603 
0.188971 -0.462710 3.268569 
0.165381 -0.472125 1.797281 
0.472160 -0.165342 1.797273 
0.200408 -0.457923 2.784788 
0.457891 -0.200463 2.784784 
0.316597 -0.387288 0.152962 
0.316527 -0.387361 3.858370 
0.352055 -0.354778 3.330258 
0.353415 -0.353447 1.121784 
0.444094 -0.230251 2.248913 
0.230288 -0.444069 2.248909 
0.490666 -0.095321 1.105751 
0.095287 -0.490689 1.105770 
0.098558 -0.490420 3.902273 
0.486381 -0.116857 0.129607 
0.353791 -0.353756 2.041983 
0.353483 -0.353504 1.257584 
0.485505 -0.119944 0.264140 
0.490439 -0.096411 2.908256 
0.096278 -0.490467 2.908242 
0.092094 -0.491666 0.107111 
0.483160 -0.129561 3.871279 
-0.353789 -0.353339 0.701836 
-0.364565 -0.342176 0.327068 
-0.353725 -0.353395 0.568043 
-0.353599 -0.353515 1.333480 
-0.353344 -0.353738 1.697480 
-0.353814 -0.353322 0.870789 
-0.353290 -0.353785 1.881123 
-0.369009 -0.337396 2.632732 
-0.353469 -0.353626 2.450763 
-0.353287 -0.353792 2.067341 
-0.351200 -0.355910 2.941533 
-0.353798 -0.353336 3.179523 
-0.362971 -0.343872 3.645523 
-0.356061 -0.351046 3.466085 
-0.460521 -0.194511 3.810629 
-0.470134 -0.169991 0.226081 
-0.271290 -0.420041 3.845638 
-0.257390 -0.428699 0.181997 
-0.475411 -0.154785 3.657302 
-0.171087 -0.469858 3.706194 
-0.454911 -0.207630 3.472534 
-0.216608 -0.450611 3.475083 
-0.221993 -0.448075 1.609024 
-0.447788 -0.222294 1.609126 
-0.208702 -0.454292 1.014602 
-0.454671 -0.208252 1.014637 
-0.453138 -0.211083 2.174285 
-0.210621 -0.453562 2.174343 
-0.466291 -0.180799 0.809533 
-0.181316 -0.465880 0.809621 
-0.194817 -0.460512 1.443179 
-0.460428 -0.194889 1.443321 
-0.197092 -0.459619 2.021555 
-0.459137 -0.197618 2.021549 
-0.184045 -0.464884 2.603501 
-0.467859 -0.176402 2.594149 
-0.197448 -0.459282 3.076352 
-0.467268 -0.178245 3.041411 
-0.460763 -0.194190 0.405156 
-0.211453 -0.453079 0.396705 
-0.467651 -0.177150 0.596754 
-0.177537 -0.467356 0.596952 
-0.181254 -0.465956 1.229897 
-0.466140 -0.181017 1.230014 
-0.191805 -0.461673 3.268730 
-0.463027 -0.188967 3.268824 
-0.471405 -0.166248 1.792638 
-0.165767 -0.471829 1.792571 
-0.177587 -0.467322 2.857679 
-0.441964 -0.233942 2.804880 
-0.386890 -0.316661 0.151506 
-0.387032 -0.316488 3.858859 
-0.355093 -0.352028 3.330488 
-0.353344 -0.353741 2.245866 
-0.353737 -0.353390 1.117351 
-0.490164 -0.099259 1.111192 
-0.099618 -0.489888 1.111097 
-0.491804 -0.090909 0.701499 
-0.091365 -0.491464 0.701706 
-0.165712 -0.471804 2.380809 
-0.471562 -0.165969 2.380658 
-0.490019 -0.098528 3.902874 
-0.116158 -0.486441 0.129138 
-0.118929 -0.485705 0.262937 
-0.353458 -0.353644 1.522603 
-0.316963 -0.386685 2.768062 
-0.488859 -0.105536 2.911543 
-0.491275 -0.092062 0.106295 
-0.129237 -0.483125 3.871479 
-0.353734 0.353698 0.703519 
-0.353674 0.353644 0.564711 
-0.342146 0.364536 0.326119 
-0.353484 0.353495 1.465231 
-0.353370 0.353394 1.676046 
-0.353752 0.353724 0.911473 
-0.353619 0.353604 1.258186 
-0.353682 0.353655 2.799886 
-0.353311 0.353348 1.920281 
-0.353440 0.353457 2.393442 
-0.353340 0.353372 2.159293 
-0.353583 0.353578 2.624314 
-0.353739 0.353699 2.989577 
-0.353730 0.353724 3.179606 
-0.343868 0.362940 3.645856 
-0.351244 0.356004 3.466337 
-0.194274 0.460521 3.810820 
-0.169829 0.470131 0.225856 
-0.419733 0.271293 3.846122 
-0.428429 0.257397 0.181288 
-0.154782 0.475403 3.657436 
-0.469736 0.171075 3.706697 
-0.207853 0.454865 3.472683 
-0.450770 0.216546 3.475411 
-0.445667 0.227168 1.001626 
-0.227201 0.445645 1.001652 
-0.183851 0.465218 0.814128 
-0.465244 0.183814 0.814137 
-0.188343 0.462876 2.036539 
-0.462837 0.188380 2.036558 
-0.477409 0.148627 2.587662 
[...]
POINT_DATA 630
SCALARS u float 1
LOOKUP_TABLE default
0.008682
0.009358
0.008817
0.009376
0.008598
0.009175
0.008485
0.009088
0.006966
0.006413
0.007511
0.010677
0.011050
0.010366
0.007126
0.006581
0.007632
0.010537
0.010800
0.010214
0.007072
0.006618
0.007553
0.010323
0.010615
0.009903
0.007033
0.006569
0.007530
0.010227
0.010575
0.009916
0.006110
0.004805
0.005197
0.005850
0.005325
0.003449
0.002490
0.004414
0.006077
0.006442
0.005229
0.003236
0.001841
0.004010
0.005159
0.005137
0.004889
0.004585
0.005947
0.006076
0.004694
0.005175
0.005656
0.005315
0.003354
0.002093
0.004047
0.005819
0.006011
0.005638
0.003635
0.002328
0.003756
0.005226
0.005961
0.004976
0.004295
0.005841
0.006883
0.005511
0.005311
0.005679
0.005048
0.003330
0.002576
0.004557
0.005739
0.006171
0.005416
0.003605
0.002619
0.003791
0.005218
0.005137
0.004946
0.005096
0.006662
0.006754
0.005269
0.005259
0.005586
0.005155
0.003348
0.002544
0.004275
0.005681
0.006355
0.005405
0.003753
0.002400
0.003717
0.004994
0.005578
0.004798
0.005020
0.006603
0.005645
0.002389
0.000364
0.004826
0.006234
0.004469
0.006881
0.003786
0.003050
0.005828
0.001000
0.005027
0.004961
0.000844
0.004587
0.003881
0.003645
0.002748
0.003673
0.002697
0.001080
0.001409
0.006624
0.006607
0.001875
0.001354
0.005757
0.005578
0.003716
0.004034
0.002541
0.002622
0.003080
0.003144
0.005760
0.005575
0.004413
0.004703
0.006214
0.005996
0.005530
0.005317
0.006263
0.006005
0.003171
0.003060
0.003851
0.003804
0.002729
0.004298
0.006233
0.005915
0.004923
0.005072
0.006517
0.006157
0.005882
0.005548
0.006946
0.006273
0.001545
0.001298
0.005670
0.004996
0.005355
0.006031
0.007358
0.004840
0.004484
0.003461
0.005829
0.003814
0.005246
0.004357
0.003292
0.004413
0.004903
0.006842
0.005804
0.007738
0.007513
0.008858
0.008767
0.005826
0.007110
0.005197
0.005856
0.004380
0.004080
0.003411
0.003309
0.005305
0.005281
0.003385
0.003022
0.005705
0.005954
0.005092
0.004760
0.003390
0.003146
0.006113
0.006570
0.005268
0.005584
0.004252
0.004362
0.004831
0.004645
0.004857
0.005288
0.005753
0.005698
0.003907
0.003850
0.009134
0.008922
0.005202
0.003721
0.004974
0.005119
0.004031
0.004147
0.008072
0.008691
0.005791
0.003271
0.007258
0.004298
0.004582
0.008174
0.008535
0.005899
0.000812
0.004341
0.001135
0.005171
0.006446
0.006483
0.001203
0.002067
0.006616
0.005476
0.006061
0.000705
0.003217
0.004633
0.004455
0.003934
0.003383
0.003571
0.002878
0.003895
0.003438
0.003905
0.004027
0.005525
0.005396
0.005773
0.005891
0.006139
0.006205
0.001466
0.001881
0.006625
0.006603
0.001368
0.001735
0.006117
0.005845
0.003334
0.002285
0.004896
0.004849
0.002932
0.003040
0.005527
0.005358
0.005980
0.005983
0.004556
0.003824
0.003956
0.004256
0.005086
0.005197
0.004554
0.004247
0.004332
0.005526
0.005689
0.003543
0.003595
0.006953
0.005705
0.003843
0.002452
0.003424
0.004682
0.006991
0.005541
0.005476
0.005843
0.007246
0.003812
0.005168
0.004881
0.003265
0.003699
0.005895
0.004003
0.005441
0.003034
0.004366
0.004855
0.006864
0.005540
0.007758
0.007427
0.008846
0.008762
0.006051
0.006844
0.005621
0.004900
0.004407
0.004691
0.005353
0.005081
0.005955
0.005874
0.002852
0.002498
0.004675
0.004987
0.006232
0.006678
0.005547
0.005569
0.003712
0.003847
0.005259
0.004978
0.003327
0.003222
0.004257
0.004284
0.006045
0.005956
0.004070
0.003529
0.004039
0.003848
0.008951
0.008926
0.005532
0.004170
0.004989
0.004868
0.005616
0.005392
0.005935
0.006116
0.008091
0.008602
0.003259
0.003096
0.007140
0.008122
0.008433
0.006761
0.007783
0.008125
0.008018
0.007712
0.006774
0.007618
0.007970
0.006698
0.006933
0.009229
0.008699
0.006815
0.009171
0.006710
0.006893
0.009379
0.006864
0.007024
0.006918
0.007141
0.006859
0.007835
0.008203
0.008211
0.007940
0.006770
0.007805
0.008214
0.006820
0.006842
0.009459
0.008890
0.006723
0.009523
0.006780
0.006972
0.009666
0.007019
0.007152
0.007059
0.007183
0.004358
0.006046
0.005625
0.005762
0.006082
0.005629
0.005565
0.003677
0.002185
0.003923
0.003928
0.001446
0.002297
0.002401
0.004496
0.005299
0.005569
0.004372
0.003960
0.003097
0.005703
0.004408
0.006184
0.005966
0.006740
0.005979
0.006139
0.005986
0.004505
0.005314
0.003051
0.004750
0.003519
0.003619
0.003031
0.004543
0.003219
0.001887
0.004697
0.006043
0.006288
0.005154
0.005874
0.005737
0.005822
0.000618
0.005864
0.002380
0.002302
0.002217
0.001636
0.004312
0.002333
0.002272
0.002289
0.004518
0.004098
0.004340
0.004082
0.003317
0.003988
0.003891
0.005646
0.001731
0.005302
0.005157
0.005199
0.003491
0.005413
0.005387
0.003575
0.004638
0.003111
0.002566
0.003628
0.005644
0.004644
0.004508
0.004419
0.005388
0.004871
0.004854
0.001928
0.005377
0.004989
0.005086
0.005839
0.004999
0.003450
0.003469
0.003382
0.003269
0.006479
0.005696
0.005957
0.002551
0.006200
0.003121
0.000542
0.003683
0.003110
0.001614
0.000433
0.002394
0.000877
0.004358
0.006046
0.005625
0.005762
0.006082
0.005629
0.005565
0.003677
0.002185
0.003923
0.003928
0.001446
0.002297
0.002401
0.004496
0.005299
0.005569
0.004372
0.003960
0.003097
0.005703
0.004408
0.006184
0.005966
0.006740
0.005979
0.006139
0.005986
0.004505
0.005314
0.003051
0.004750
0.003519
0.003619
0.003031
0.004543
0.003219
0.001887
0.004697
0.006043
0.006288
0.005154
0.005874
0.005737
0.005822
0.000618
0.005864
0.002380
0.002302
0.002217
0.001636
0.004312
0.002333
0.002272
0.002289
0.004518
0.004098
0.004340
0.004082
0.003317
0.003988
0.003891
0.005646
0.001731
0.005302
0.005157
0.005199
0.003491
0.005413
0.005387
0.003575
0.004638
0.003111
0.002566
0.003628
0.005644
0.004644
0.004508
0.004419
0.005388
0.004871
0.004854
0.001928
0.005377
0.004989
0.005086
0.005839
0.004999
0.003450
0.003469
0.003382
0.003269
0.006479
0.005696
0.005957
0.002551
0.006200
0.003121
0.000542
0.003683
0.003110
0.001614
0.000433
0.002394
0.000877
