# vtk DataFile Version 2.0
Unstructured Grid Example
ASCII
DATASET UNSTRUCTURED_GRID
POINTS 630 float
-0.000414 0.500398 0.000485 
0.499537 0.000357 -0.000561 
-0.000436 -0.499600 -0.000482 
-0.500460 0.000373 0.000555 
-0.000427 0.500401 3.999540 
0.499545 0.000375 4.000532 
-0.000424 -0.499608 4.000455 
-0.500451 0.000373 3.999474 
0.190932 0.462314 0.000235 
0.353132 0.353912 -0.000048 
0.461500 0.191693 -0.000326 
0.461467 -0.190974 -0.000704 
0.353086 -0.353158 -0.000735 
0.190889 -0.461535 -0.000662 
-0.191768 -0.461555 -0.000227 
-0.353986 -0.353186 0.000051 
-0.462389 -0.190979 0.000322 
-0.462397 0.191725 0.000690 
-0.354000 0.353953 0.000718 
-0.191768 0.462347 0.000659 
0.190919 0.462326 3.999783 
0.353124 0.353930 4.000051 
0.461498 0.191713 4.000309 
0.461482 -0.190960 4.000667 
0.353103 -0.353160 4.000698 
0.190906 -0.461544 4.000624 
-0.191761 -0.461559 4.000223 
-0.353983 -0.353183 3.999955 
-0.462382 -0.190975 3.999692 
-0.462389 0.191724 3.999340 
-0.353999 0.353948 3.999304 
-0.191777 0.462342 3.999379 
-0.000163 0.500187 0.200467 
0.000106 0.499976 0.400402 
0.000315 0.499812 0.600260 
0.000413 0.499731 0.800115 
0.000384 0.499750 0.999951 
0.000212 0.499867 1.199836 
-0.000026 0.500034 1.399789 
-0.000262 0.500209 1.599816 
-0.000415 0.500313 1.799917 
-0.000448 0.500331 2.000032 
-0.000352 0.500258 2.200121 
-0.000180 0.500143 2.400160 
0.000029 0.500000 2.600157 
0.000258 0.499815 2.800142 
0.000371 0.499754 3.000039 
0.000356 0.499752 3.199902 
0.000273 0.499832 3.399723 
0.000068 0.499990 3.599609 
-0.000185 0.500201 3.799563 
-0.000182 -0.499809 0.199545 
0.000098 -0.500028 0.399606 
0.000312 -0.500187 0.599738 
0.000406 -0.500259 0.799908 
0.000384 -0.500253 1.000026 
0.000224 -0.500131 1.200131 
-0.000011 -0.499966 1.400178 
-0.000239 -0.499799 1.600159 
-0.000398 -0.499702 1.800085 
-0.000420 -0.499693 2.000013 
-0.000381 -0.499716 2.199889 
-0.000196 -0.499845 2.399809 
0.000027 -0.500026 2.599802 
0.000247 -0.500173 2.799877 
0.000378 -0.500248 2.999997 
0.000410 -0.500271 3.200157 
0.000269 -0.500176 3.400287 
0.000066 -0.499993 3.600366 
-0.000183 -0.499798 3.800426 
0.499784 0.000134 0.199461 
0.500031 -0.000103 0.399535 
0.500212 -0.000278 0.599701 
0.500310 -0.000355 0.799860 
0.500292 -0.000323 1.000042 
0.500159 -0.000174 1.200167 
0.499976 0.000026 1.400220 
0.499754 0.000227 1.600210 
0.499654 0.000345 1.800092 
0.499616 0.000369 1.999961 
0.499685 0.000313 2.199849 
0.499831 0.000159 2.399791 
0.500016 -0.000037 2.599777 
0.500192 -0.000221 2.799851 
0.500300 -0.000336 2.999973 
0.500285 -0.000320 3.200118 
0.500181 -0.000234 3.400310 
0.500009 -0.000060 3.600437 
0.499775 0.000163 3.800506 
-0.500221 0.000152 0.200520 
-0.499966 -0.000088 0.400446 
-0.499784 -0.000269 0.600297 
-0.499702 -0.000357 0.800133 
-0.499704 -0.000333 0.999973 
-0.499843 -0.000184 1.199841 
-0.500031 0.000015 1.399782 
-0.500230 0.000215 1.599805 
-0.500338 0.000345 1.799903 
-0.500395 0.000383 2.000007 
-0.500314 0.000325 2.200121 
-0.500190 0.000162 2.400208 
-0.499974 -0.000036 2.600203 
-0.499811 -0.000209 2.800156 
-0.499732 -0.000339 3.000003 
-0.499703 -0.000345 3.199839 
-0.499802 -0.000230 3.399716 
-0.499985 -0.000070 3.599571 
-0.500228 0.000165 3.799502 
0.354949 0.352197 0.677871 
0.354434 0.352640 0.208667 
0.353543 0.353565 1.385444 
0.353242 0.353832 1.658936 
0.354168 0.352976 0.913176 
0.353844 0.353298 1.116570 
0.353113 0.353955 1.916326 
0.353794 0.353331 2.799989 
0.353353 0.353724 2.393571 
0.353170 0.353882 2.158225 
0.353612 0.353494 2.624449 
0.353874 0.353259 2.938303 
0.341129 0.365572 3.350675 
0.353595 0.353513 3.624944 
0.457350 0.201742 3.807015 
0.201379 0.457760 3.806532 
0.473022 0.161940 3.649253 
0.161976 0.473059 3.648702 
0.468350 0.174933 0.318345 
0.177663 0.467404 0.318826 
0.191328 0.461964 1.393140 
0.461921 0.191360 1.393348 
0.188150 0.463424 2.035005 
0.462652 0.188989 2.034937 
0.477411 0.148586 2.587652 
0.148634 0.477408 2.587927 
0.150560 0.476640 3.007055 
0.477250 0.149798 3.006983 
0.186716 0.463758 3.471983 
0.464090 0.186297 3.472383 
0.191508 0.461821 1.249118 
0.462078 0.191200 1.249310 
0.191150 0.462106 1.539646 
0.461758 0.191504 1.539850 
0.452756 0.212544 3.229440 
0.164763 0.471915 3.252873 
0.193845 0.460812 0.545867 
0.462209 0.190978 0.545899 
0.179323 0.466582 0.783213 
0.467565 0.177682 0.783130 
0.176963 0.467492 1.022702 
0.468183 0.176028 1.022755 
0.176396 0.468037 1.776792 
0.467330 0.177179 1.776909 
0.465145 0.183131 2.395902 
0.182767 0.465477 2.396118 
0.191597 0.461735 2.799557 
0.462161 0.191115 2.799398 
0.357889 0.349175 0.457092 
0.353276 0.353796 3.866585 
0.329118 0.376410 3.144363 
0.414183 0.280273 3.079766 
0.446288 0.225147 2.236492 
0.224510 0.446856 2.236619 
0.090506 0.492001 1.901015 
0.491282 0.091331 1.901050 
0.090773 0.491476 0.901495 
0.492136 0.089721 0.901443 
0.489505 0.100542 3.902101 
0.099966 0.490138 3.901344 
0.421311 0.269187 2.502233 
0.269047 0.421459 2.502364 
0.462853 0.188621 0.120904 
0.189034 0.463030 0.121453 
0.353855 -0.353834 0.785204 
0.353777 -0.353738 0.584983 
0.342122 -0.364524 0.329682 
0.353274 -0.353309 1.673043 
0.353854 -0.353799 0.977796 
0.353506 -0.353495 1.424732 
0.353170 -0.353231 1.894713 
0.353751 -0.353729 2.799397 
0.353224 -0.353276 2.191764 
0.353369 -0.353405 2.420631 
0.353581 -0.353578 2.607213 
0.353841 -0.353802 2.989495 
0.353850 -0.353796 3.179684 
0.343842 -0.362922 3.646076 
0.351318 -0.356045 3.466522 
0.194189 -0.460440 3.811042 
0.169743 -0.470078 0.226427 
0.419623 -0.271208 3.846375 
0.427781 -0.258244 0.181565 
0.154768 -0.475370 3.657611 
0.469689 -0.171046 3.706936 
0.207935 -0.454894 3.472802 
0.450836 -0.216599 3.475636 
0.447374 -0.222662 1.583814 
0.222651 -0.447402 1.583787 
0.459939 -0.196498 1.242557 
0.196537 -0.459901 1.242540 
0.191697 -0.462182 0.793067 
0.462227 -0.191645 0.793044 
0.472907 -0.162037 1.450335 
0.162044 -0.472913 1.450305 
0.225434 -0.445795 2.060602 
0.445720 -0.225473 2.060610 
0.178359 -0.467495 3.048103 
0.467398 -0.178640 3.048091 
0.463337 -0.187774 2.532653 
0.187757 -0.463342 2.532677 
0.194320 -0.460736 0.405874 
0.451577 -0.214751 0.399417 
0.461985 -0.191927 0.595292 
0.191970 -0.461952 0.595270 
0.469213 -0.172008 2.370252 
0.171960 -0.469231 2.370264 
0.179598 -0.466988 1.000929 
0.467043 -0.179533 1.000935 
0.462087 -0.191810 3.269001 
0.189491 -0.463030 3.268994 
0.164753 -0.471648 1.797463 
0.471592 -0.164815 1.797478 
0.200755 -0.458177 2.784445 
0.458181 -0.200778 2.784452 
0.316149 -0.386897 0.151824 
0.316062 -0.386941 3.859457 
0.352464 -0.355069 3.330791 
0.353775 -0.353723 1.122045 
0.443625 -0.229828 2.248610 
0.229769 -0.443665 2.248616 
0.491017 -0.095705 1.105977 
0.095760 -0.490980 1.105948 
0.098042 -0.489926 3.903155 
0.485875 -0.116492 0.128556 
0.353173 -0.353228 2.041938 
0.353667 -0.353632 1.257985 
0.485263 -0.119819 0.263156 
0.490817 -0.096846 2.908072 
0.096793 -0.490824 2.908091 
0.091593 -0.491187 0.106194 
0.482651 -0.129155 3.872288 
-0.353176 -0.353897 0.701877 
-0.364584 -0.342186 0.327180 
-0.353278 -0.353806 0.568106 
-0.353480 -0.353614 1.333443 
-0.353889 -0.353258 1.697439 
-0.353137 -0.353925 0.870804 
-0.353975 -0.353183 1.881103 
-0.368897 -0.337505 2.632797 
-0.353689 -0.353437 2.450788 
-0.353981 -0.353172 2.067335 
-0.350628 -0.356425 2.941550 
-0.353161 -0.353902 3.179499 
-0.362965 -0.343895 3.645427 
-0.355725 -0.351341 3.466017 
-0.460877 -0.194241 3.810154 
-0.470409 -0.169819 0.226618 
-0.271683 -0.419687 3.845801 
-0.257713 -0.428407 0.181805 
-0.475480 -0.154794 3.656805 
-0.171175 -0.469722 3.706565 
-0.454612 -0.207943 3.472198 
-0.216257 -0.450867 3.475296 
-0.222401 -0.447721 1.609123 
-0.448180 -0.221920 1.608961 
-0.208080 -0.454756 1.014646 
-0.454148 -0.208800 1.014590 
-0.453717 -0.210519 2.174362 
-0.211258 -0.453037 2.174269 
-0.465721 -0.181435 0.809663 
-0.180607 -0.466380 0.809523 
-0.194911 -0.460401 1.443325 
-0.460536 -0.194795 1.443098 
-0.197820 -0.459038 2.021534 
-0.459810 -0.196977 2.021544 
-0.183987 -0.464935 2.603325 
-0.467810 -0.176460 2.594381 
-0.196755 -0.459790 3.076406 
-0.466724 -0.178861 3.041386 
-0.460659 -0.194355 0.405582 
-0.211294 -0.453174 0.396442 
-0.467251 -0.177622 0.597058 
-0.177003 -0.467724 0.596741 
-0.180926 -0.466173 1.230023 
-0.465879 -0.181306 1.229836 
-0.191186 -0.462124 3.268863 
-0.462522 -0.189498 3.268648 
-0.471995 -0.165659 1.792530 
-0.166431 -0.471316 1.792637 
-0.177088 -0.467715 2.857597 
-0.441590 -0.234310 2.804997 
-0.387297 -0.316336 0.151702 
-0.387469 -0.316124 3.858674 
-0.354564 -0.352507 3.330437 
-0.353889 -0.353253 2.245876 
-0.353259 -0.353815 1.117328 
-0.489775 -0.099693 1.111060 
-0.099119 -0.490218 1.111212 
-0.491344 -0.091460 0.701797 
-0.090729 -0.491887 0.701466 
-0.166076 -0.471512 2.380635 
-0.471900 -0.165664 2.380877 
-0.490567 -0.098091 3.902192 
-0.116593 -0.486023 0.128608 
-0.119064 -0.485529 0.262444 
-0.353707 -0.353409 1.522562 
-0.316607 -0.387009 2.768058 
-0.488432 -0.106027 2.911644 
-0.491810 -0.091658 0.107015 
-0.129674 -0.482706 3.871969 
-0.353264 0.353321 0.703999 
-0.353361 0.353409 0.565433 
-0.342235 0.364630 0.327130 
-0.353665 0.353647 1.464750 
-0.353848 0.353808 1.675687 
-0.353236 0.353280 0.911560 
-0.353449 0.353472 1.257780 
-0.353347 0.353390 2.800182 
-0.353942 0.353882 1.920215 
-0.353735 0.353708 2.393851 
-0.353895 0.353844 2.159526 
-0.353507 0.353514 2.624729 
-0.353256 0.353320 2.989593 
-0.353270 0.353280 3.179366 
-0.343901 0.363014 3.644894 
-0.351023 0.355816 3.465614 
-0.194620 0.460878 3.809849 
-0.170078 0.470414 0.226831 
-0.420180 0.271678 3.845026 
-0.428825 0.257725 0.182407 
-0.154800 0.475492 3.656590 
-0.469919 0.171194 3.705759 
-0.207586 0.454687 3.471960 
-0.450614 0.216357 3.474767 
-0.445241 0.226719 1.001585 
-0.226665 0.445276 1.001543 
-0.183248 0.464816 0.814332 
-0.464774 0.183307 0.814317 
-0.189007 0.463372 2.036660 
-0.463434 0.188947 2.036629 
-0.477395 0.148593 2.588061 
[...]
POINT_DATA 630
SCALARS u float 1
LOOKUP_TABLE default
0.008682
0.009358
0.008817
0.009376
0.008598
0.009175
0.008485
0.009088
0.006966
0.006413
0.007511
0.010677
0.011050
0.010366
0.007126
0.006581
0.007632
0.010537
0.010800
0.010214
0.007072
0.006618
0.007553
0.010323
0.010615
0.009903
0.007033
0.006569
0.007530
0.010227
0.010575
0.009916
0.006110
0.004805
0.005197
0.005850
0.005325
0.003449
0.002490
0.004414
0.006077
0.006442
0.005229
0.003236
0.001841
0.004010
0.005159
0.005137
0.004889
0.004585
0.005947
0.006076
0.004694
0.005175
0.005656
0.005315
0.003354
0.002093
0.004047
0.005819
0.006011
0.005638
0.003635
0.002328
0.003756
0.005226
0.005961
0.004976
0.004295
0.005841
0.006883
0.005511
0.005311
0.005679
0.005048
0.003330
0.002576
0.004557
0.005739
0.006171
0.005416
0.003605
0.002619
0.003791
0.005218
0.005137
0.004946
0.005096
0.006662
0.006754
0.005269
0.005259
0.005586
0.005155
0.003348
0.002544
0.004275
0.005681
0.006355
0.005405
0.003753
0.002400
0.003717
0.004994
0.005578
0.004798
0.005020
0.006603
0.005645
0.002389
0.000364
0.004826
0.006234
0.004469
0.006881
0.003786
0.003050
0.005828
0.001000
0.005027
0.004961
0.000844
0.004587
0.003881
0.003645
0.002748
0.003673
0.002697
0.001080
0.001409
0.006624
0.006607
0.001875
0.001354
0.005757
0.005578
0.003716
0.004034
0.002541
0.002622
0.003080
0.003144
0.005760
0.005575
0.004413
0.004703
0.006214
0.005996
0.005530
0.005317
0.006263
0.006005
0.003171
0.003060
0.003851
0.003804
0.002729
0.004298
0.006233
0.005915
0.004923
0.005072
0.006517
0.006157
0.005882
0.005548
0.006946
0.006273
0.001545
0.001298
0.005670
0.004996
0.005355
0.006031
0.007358
0.004840
0.004484
0.003461
0.005829
0.003814
0.005246
0.004357
0.003292
0.004413
0.004903
0.006842
0.005804
0.007738
0.007513
0.008858
0.008767
0.005826
0.007110
0.005197
0.005856
0.004380
0.004080
0.003411
0.003309
0.005305
0.005281
0.003385
0.003022
0.005705
0.005954
0.005092
0.004760
0.003390
0.003146
0.006113
0.006570
0.005268
0.005584
0.004252
0.004362
0.004831
0.004645
0.004857
0.005288
0.005753
0.005698
0.003907
0.003850
0.009134
0.008922
0.005202
0.003721
0.004974
0.005119
0.004031
0.004147
0.008072
0.008691
0.005791
0.003271
0.007258
0.004298
0.004582
0.008174
0.008535
0.005899
0.000812
0.004341
0.001135
0.005171
0.006446
0.006483
0.001203
0.002067
0.006616
0.005476
0.006061
0.000705
0.003217
0.004633
0.004455
0.003934
0.003383
0.003571
0.002878
0.003895
0.003438
0.003905
0.004027
0.005525
0.005396
0.005773
0.005891
0.006139
0.006205
0.001466
0.001881
0.006625
0.006603
0.001368
0.001735
0.006117
0.005845
0.003334
0.002285
0.004896
0.004849
0.002932
0.003040
0.005527
0.005358
0.005980
0.005983
0.004556
0.003824
0.003956
0.004256
0.005086
0.005197
0.004554
0.004247
0.004332
0.005526
0.005689
0.003543
0.003595
0.006953
0.005705
0.003843
0.002452
0.003424
0.004682
0.006991
0.005541
0.005476
0.005843
0.007246
0.003812
0.005168
0.004881
0.003265
0.003699
0.005895
0.004003
0.005441
0.003034
0.004366
0.004855
0.006864
0.005540
0.007758
0.007427
0.008846
0.008762
0.006051
0.006844
0.005621
0.004900
0.004407
0.004691
0.005353
0.005081
0.005955
0.005874
0.002852
0.002498
0.004675
0.004987
0.006232
0.006678
0.005547
0.005569
0.003712
0.003847
0.005259
0.004978
0.003327
0.003222
0.004257
0.004284
0.006045
0.005956
0.004070
0.003529
0.004039
0.003848
0.008951
0.008926
0.005532
0.004170
0.004989
0.004868
0.005616
0.005392
0.005935
0.006116
0.008091
0.008602
0.003259
0.003096
0.007140
0.008122
0.008433
0.006761
0.007783
0.008125
0.008018
0.007712
0.006774
0.007618
0.007970
0.006698
0.006933
0.009229
0.008699
0.006815
0.009171
0.006710
0.006893
0.009379
0.006864
0.007024
0.006918
0.007141
0.006859
0.007835
0.008203
0.008211
0.007940
0.006770
0.007805
0.008214
0.006820
0.006842
0.009459
0.008890
0.006723
0.009523
0.006780
0.006972
0.009666
0.007019
0.007152
0.007059
0.007183
0.004358
0.006046
0.005625
0.005762
0.006082
0.005629
0.005565
0.003677
0.002185
0.003923
0.003928
0.001446
0.002297
0.002401
0.004496
0.005299
0.005569
0.004372
0.003960
0.003097
0.005703
0.004408
0.006184
0.005966
0.006740
0.005979
0.006139
0.005986
0.004505
0.005314
0.003051
0.004750
0.003519
0.003619
0.003031
0.004543
0.003219
0.001887
0.004697
0.006043
0.006288
0.005154
0.005874
0.005737
0.005822
0.000618
0.005864
0.002380
0.002302
0.002217
0.001636
0.004312
0.002333
0.002272
0.002289
0.004518
0.004098
0.004340
0.004082
0.003317
0.003988
0.003891
0.005646
0.001731
0.005302
0.005157
0.005199
0.003491
0.005413
0.005387
0.003575
0.004638
0.003111
0.002566
0.003628
0.005644
0.004644
0.004508
0.004419
0.005388
0.004871
0.004854
0.001928
0.005377
0.004989
0.005086
0.005839
0.004999
0.003450
0.003469
0.003382
0.003269
0.006479
0.005696
0.005957
0.002551
0.006200
0.003121
0.000542
0.003683
0.003110
0.001614
0.000433
0.002394
0.000877
0.004358
0.006046
0.005625
0.005762
0.006082
0.005629
0.005565
0.003677
0.002185
0.003923
0.003928
0.001446
0.002297
0.002401
0.004496
0.005299
0.005569
0.004372
0.003960
0.003097
0.005703
0.004408
0.006184
0.005966
0.006740
0.005979
0.006139
0.005986
0.004505
0.005314
0.003051
0.004750
0.003519
0.003619
0.003031
0.004543
0.003219
0.001887
0.004697
0.006043
0.006288
0.005154
0.005874
0.005737
0.005822
0.000618
0.005864
0.002380
0.002302
0.002217
0.001636
0.004312
0.002333
0.002272
0.002289
0.004518
0.004098
0.004340
0.004082
0.003317
0.003988
0.003891
0.005646
0.001731
0.005302
0.005157
0.005199
0.003491
0.005413
0.005387
0.003575
0.004638
0.003111
0.002566
0.003628
0.005644
0.004644
0.004508
0.004419
0.005388
0.004871
0.004854
0.001928
0.005377
0.004989
0.005086
0.005839
0.004999
0.003450
0.003469
0.003382
0.003269
0.006479
0.005696
0.005957
0.002551
0.006200
0.003121
0.000542
0.003683
0.003110
0.001614
0.000433
0.002394
0.000877
