# vtk DataFile Version 2.0
Unstructured Grid Example
ASCII
DATASET UNSTRUCTURED_GRID
POINTS 630 float
0.000414 0.499602 -0.000485 
0.500463 -0.000357 0.000561 
0.000436 -0.500400 0.000482 
-0.499540 -0.000373 -0.000555 
0.000427 0.499599 4.000460 
0.500455 -0.000375 3.999468 
0.000424 -0.500392 3.999545 
-0.499549 -0.000373 4.000526 
0.191752 0.461565 -0.000235 
0.353975 0.353195 0.000048 
0.462380 0.190990 0.000326 
0.462413 -0.191710 0.000704 
0.354021 -0.353949 0.000735 
0.191794 -0.462344 0.000662 
-0.190916 -0.462324 0.000227 
-0.353121 -0.353921 -0.000051 
-0.461491 -0.191704 -0.000322 
-0.461482 0.190958 -0.000690 
-0.353106 0.353154 -0.000718 
-0.190915 0.461533 -0.000659 
0.191765 0.461554 4.000217 
0.353983 0.353177 3.999949 
0.462381 0.190971 3.999691 
0.462397 -0.191723 3.999333 
0.354004 -0.353947 3.999302 
0.191777 -0.462336 3.999376 
-0.190922 -0.462321 3.999777 
-0.353124 -0.353924 4.000045 
-0.461498 -0.191709 4.000308 
-0.461490 0.190959 4.000660 
-0.353108 0.353159 4.000696 
-0.190907 0.461537 4.000621 
0.000163 0.499813 0.199533 
-0.000106 0.500024 0.399598 
-0.000315 0.500188 0.599740 
-0.000413 0.500269 0.799885 
-0.000384 0.500250 1.000049 
-0.000212 0.500133 1.200164 
0.000026 0.499966 1.400211 
0.000262 0.499791 1.600184 
0.000415 0.499687 1.800083 
0.000448 0.499669 1.999968 
0.000352 0.499742 2.199879 
0.000180 0.499857 2.399840 
-0.000029 0.500000 2.599843 
-0.000258 0.500185 2.799858 
-0.000371 0.500246 2.999961 
-0.000356 0.500248 3.200098 
-0.000273 0.500168 3.400277 
-0.000068 0.500010 3.600391 
0.000185 0.499799 3.800437 
0.000182 -0.500191 0.200455 
-0.000098 -0.499972 0.400394 
-0.000312 -0.499813 0.600262 
-0.000406 -0.499741 0.800092 
-0.000384 -0.499747 0.999974 
-0.000224 -0.499869 1.199869 
0.000011 -0.500034 1.399822 
0.000239 -0.500201 1.599841 
0.000398 -0.500298 1.799915 
0.000420 -0.500307 1.999987 
0.000381 -0.500284 2.200111 
0.000196 -0.500155 2.400191 
-0.000027 -0.499974 2.600198 
-0.000247 -0.499827 2.800123 
-0.000378 -0.499752 3.000003 
-0.000410 -0.499729 3.199843 
-0.000269 -0.499824 3.399713 
-0.000066 -0.500007 3.599634 
0.000183 -0.500202 3.799574 
0.500216 -0.000134 0.200539 
0.499969 0.000103 0.400465 
0.499788 0.000278 0.600299 
0.499690 0.000355 0.800140 
0.499708 0.000323 0.999958 
0.499841 0.000174 1.199833 
0.500024 -0.000026 1.399780 
0.500246 -0.000227 1.599790 
0.500346 -0.000345 1.799908 
0.500384 -0.000369 2.000039 
0.500315 -0.000313 2.200151 
0.500169 -0.000159 2.400209 
0.499984 0.000037 2.600223 
0.499808 0.000221 2.800149 
0.499700 0.000336 3.000027 
0.499715 0.000320 3.199882 
0.499819 0.000234 3.399690 
0.499991 0.000060 3.599563 
0.500225 -0.000163 3.799494 
-0.499779 -0.000152 0.199480 
-0.500034 0.000088 0.399554 
-0.500216 0.000269 0.599703 
-0.500298 0.000357 0.799867 
-0.500296 0.000333 1.000027 
-0.500157 0.000184 1.200159 
-0.499969 -0.000015 1.400218 
-0.499770 -0.000215 1.600195 
-0.499662 -0.000345 1.800097 
-0.499605 -0.000383 1.999993 
-0.499686 -0.000325 2.199879 
-0.499810 -0.000162 2.399792 
-0.500026 0.000036 2.599797 
-0.500189 0.000209 2.799844 
-0.500268 0.000339 2.999997 
-0.500297 0.000345 3.200161 
-0.500198 0.000230 3.400284 
-0.500015 0.000070 3.600429 
-0.499772 -0.000165 3.800498 
0.354218 0.352844 0.677925 
0.354747 0.352386 0.208761 
0.353563 0.353542 1.385389 
0.353865 0.353275 1.658916 
0.353368 0.353701 0.913178 
0.353263 0.353808 1.116532 
0.353994 0.353152 1.916356 
0.353313 0.353776 2.800011 
0.353754 0.353382 2.393610 
0.353936 0.353225 2.158240 
0.353495 0.353613 2.624497 
0.353233 0.353848 2.938320 
0.340484 0.366141 3.350654 
0.353512 0.353594 3.624854 
0.457786 0.201404 3.806443 
0.201767 0.457376 3.806925 
0.473063 0.161977 3.648624 
0.161941 0.473026 3.649175 
0.468434 0.174974 0.318974 
0.177642 0.467346 0.318363 
0.191355 0.461915 1.393318 
0.461958 0.191324 1.393110 
0.189047 0.462709 2.034965 
0.463482 0.188207 2.035033 
0.477396 0.148642 2.587971 
0.148594 0.477399 2.587696 
0.149741 0.477204 3.006981 
0.476594 0.150504 3.007053 
0.186272 0.464078 3.472321 
0.463746 0.186691 3.471921 
0.191176 0.462059 1.249281 
0.461802 0.191484 1.249088 
0.191534 0.461774 1.539810 
0.462121 0.191180 1.539606 
0.452065 0.213248 3.229293 
0.164006 0.472495 3.253027 
0.193271 0.461219 0.545568 
0.461754 0.191504 0.546323 
0.178464 0.467221 0.783106 
0.466875 0.178437 0.783310 
0.176200 0.468070 1.022738 
0.467546 0.176692 1.022710 
0.177229 0.467351 1.776900 
0.468058 0.176446 1.776783 
0.465499 0.182793 2.396152 
0.183157 0.465168 2.395936 
0.191087 0.462144 2.799423 
0.461719 0.191568 2.799582 
0.357553 0.349497 0.457175 
0.353831 0.353310 3.866485 
0.328300 0.377115 3.144362 
0.413454 0.280992 3.079763 
0.446888 0.224560 2.236642 
0.225198 0.446320 2.236515 
0.091401 0.491314 1.901052 
0.492034 0.090576 1.901018 
0.089940 0.492060 0.901445 
0.491502 0.090437 0.901533 
0.490179 0.100002 3.901263 
0.100578 0.489547 3.902020 
0.421473 0.269065 2.502406 
0.269205 0.421325 2.502275 
0.463442 0.188178 0.121554 
0.189562 0.462532 0.120983 
0.353252 -0.353273 0.785629 
0.353329 -0.353368 0.585851 
0.342238 -0.364621 0.330948 
0.353833 -0.353798 1.672655 
0.353253 -0.353308 0.977760 
0.353601 -0.353612 1.424152 
0.353937 -0.353875 1.894582 
0.353356 -0.353377 2.799793 
0.353883 -0.353831 2.192056 
0.353738 -0.353702 2.421218 
0.353526 -0.353529 2.607779 
0.353266 -0.353305 2.989571 
0.353257 -0.353311 3.179318 
0.343919 -0.363016 3.644897 
0.351000 -0.355819 3.465596 
0.194625 -0.460876 3.809852 
0.170068 -0.470416 0.227641 
0.420186 -0.271674 3.845026 
0.428284 -0.258625 0.182946 
0.154809 -0.475505 3.656612 
0.469923 -0.171196 3.705736 
0.207566 -0.454699 3.472005 
0.450583 -0.216348 3.474686 
0.447797 -0.223062 1.583328 
0.223073 -0.447769 1.583354 
0.459699 -0.196268 1.242068 
0.196229 -0.459737 1.242086 
0.190986 -0.461698 0.793391 
0.461652 -0.191038 0.793414 
0.473069 -0.162199 1.449795 
0.162192 -0.473063 1.449826 
0.226205 -0.446406 2.060689 
0.446481 -0.226165 2.060681 
0.177635 -0.466993 3.048060 
0.466826 -0.178047 3.048078 
0.463438 -0.187844 2.533228 
0.187861 -0.463432 2.533204 
0.194186 -0.460710 0.406924 
0.451539 -0.214647 0.400549 
0.461593 -0.191485 0.595988 
0.191442 -0.461625 0.596011 
0.469618 -0.172369 2.370751 
0.172416 -0.469601 2.370740 
0.178895 -0.466544 1.000832 
0.466489 -0.178960 1.000827 
0.461606 -0.191324 3.268511 
0.188851 -0.462636 3.268471 
0.165526 -0.472235 1.797239 
0.472291 -0.165464 1.797225 
0.200328 -0.457865 2.784867 
0.457824 -0.200390 2.784860 
0.316700 -0.387379 0.153226 
0.316635 -0.387459 3.858118 
0.351960 -0.354711 3.330135 
0.353332 -0.353383 1.121724 
0.444202 -0.230349 2.248982 
0.230408 -0.444163 2.248977 
0.490585 -0.095233 1.105699 
0.095177 -0.490622 1.105728 
0.098678 -0.490534 3.902069 
0.486498 -0.116942 0.129851 
0.353934 -0.353879 2.041994 
0.353440 -0.353474 1.257491 
0.485562 -0.119973 0.264367 
0.490352 -0.096310 2.908299 
0.096159 -0.490384 2.908277 
0.092210 -0.491777 0.107323 
0.483277 -0.129655 3.871046 
-0.353931 -0.353210 0.701826 
-0.364560 -0.342174 0.327042 
-0.353829 -0.353300 0.568028 
-0.353627 -0.353493 1.333488 
-0.353218 -0.353849 1.697490 
-0.353970 -0.353182 0.870786 
-0.353132 -0.353924 1.881127 
-0.369034 -0.337370 2.632717 
-0.353418 -0.353669 2.450757 
-0.353126 -0.353935 2.067342 
-0.351333 -0.355790 2.941528 
-0.353945 -0.353205 3.179528 
-0.362972 -0.343866 3.645545 
-0.356138 -0.350977 3.466101 
-0.460439 -0.194573 3.810739 
-0.470071 -0.170030 0.225957 
-0.271199 -0.420122 3.845601 
-0.257315 -0.428766 0.182042 
-0.475395 -0.154784 3.657417 
-0.171066 -0.469889 3.706108 
-0.454981 -0.207558 3.472612 
-0.216689 -0.450552 3.475034 
-0.221899 -0.448157 1.609001 
-0.447698 -0.222380 1.609164 
-0.208846 -0.454185 1.014592 
-0.454792 -0.208125 1.014648 
-0.453004 -0.211213 2.174267 
-0.210474 -0.453684 2.174360 
-0.466423 -0.180652 0.809503 
-0.181480 -0.465764 0.809643 
-0.194796 -0.460538 1.443145 
-0.460403 -0.194911 1.443372 
-0.196924 -0.459754 2.021560 
-0.458982 -0.197766 2.021550 
-0.184058 -0.464873 2.603542 
-0.467870 -0.176389 2.594095 
-0.197608 -0.459165 3.076340 
-0.467394 -0.178102 3.041417 
-0.460787 -0.194151 0.405058 
-0.211489 -0.453056 0.396765 
-0.467743 -0.177041 0.596683 
-0.177660 -0.467270 0.597001 
-0.181330 -0.465906 1.229868 
-0.466200 -0.180951 1.230055 
-0.191948 -0.461569 3.268699 
-0.463144 -0.188844 3.268865 
-0.471269 -0.166385 1.792663 
-0.165613 -0.471948 1.792556 
-0.177703 -0.467231 2.857698 
-0.442050 -0.233857 2.804853 
-0.386796 -0.316736 0.151461 
-0.386930 -0.316573 3.858902 
-0.355215 -0.351917 3.330499 
-0.353218 -0.353853 2.245864 
-0.353848 -0.353292 1.117357 
-0.490254 -0.099159 1.111223 
-0.099734 -0.489811 1.111070 
-0.491910 -0.090781 0.701430 
-0.091512 -0.491367 0.701761 
-0.165628 -0.471872 2.380850 
-0.471484 -0.166040 2.380607 
-0.489892 -0.098628 3.903032 
-0.116057 -0.486537 0.129260 
-0.118898 -0.485745 0.263051 
-0.353400 -0.353698 1.522613 
-0.317045 -0.386610 2.768063 
-0.488957 -0.105422 2.911519 
-0.491151 -0.092155 0.106129 
-0.129135 -0.483222 3.871365 
-0.353842 0.353786 0.703408 
-0.353746 0.353698 0.564543 
-0.342125 0.364514 0.325885 
-0.353441 0.353460 1.465342 
-0.353259 0.353299 1.676129 
-0.353871 0.353827 0.911453 
-0.353658 0.353635 1.258280 
-0.353760 0.353717 2.799818 
-0.353165 0.353224 1.920296 
-0.353372 0.353399 2.393347 
-0.353212 0.353263 2.159239 
-0.353600 0.353593 2.624218 
-0.353851 0.353787 2.989573 
-0.353837 0.353826 3.179662 
-0.343860 0.362923 3.646078 
-0.351295 0.356047 3.466504 
-0.194195 0.460438 3.811045 
-0.169772 0.470066 0.225631 
-0.419629 0.271204 3.846375 
-0.428337 0.257321 0.181029 
-0.154777 0.475383 3.657632 
-0.469693 0.171048 3.706914 
-0.207915 0.454906 3.472850 
-0.450806 0.216590 3.475560 
-0.445765 0.227272 1.001635 
-0.227325 0.445731 1.001677 
-0.183991 0.465311 0.814081 
-0.465353 0.183931 0.814096 
-0.188190 0.462761 2.036511 
-0.462699 0.188249 2.036541 
-0.477412 0.148634 2.587569 
[...]
POINT_DATA 630
SCALARS u float 1
LOOKUP_TABLE default
0.008682
0.009358
0.008817
0.009376
0.008598
0.009175
0.008485
0.009088
0.006966
0.006413
0.007511
0.010677
0.011050
0.010366
0.007126
0.006581
0.007632
0.010537
0.010800
0.010214
0.007072
0.006618
0.007553
0.010323
0.010615
0.009903
0.007033
0.006569
0.007530
0.010227
0.010575
0.009916
0.006110
0.004805
0.005197
0.005850
0.005325
0.003449
0.002490
0.004414
0.006077
0.006442
0.005229
0.003236
0.001841
0.004010
0.005159
0.005137
0.004889
0.004585
0.005947
0.006076
0.004694
0.005175
0.005656
0.005315
0.003354
0.002093
0.004047
0.005819
0.006011
0.005638
0.003635
0.002328
0.003756
0.005226
0.005961
0.004976
0.004295
0.005841
0.006883
0.005511
0.005311
0.005679
0.005048
0.003330
0.002576
0.004557
0.005739
0.006171
0.005416
0.003605
0.002619
0.003791
0.005218
0.005137
0.004946
0.005096
0.006662
0.006754
0.005269
0.005259
0.005586
0.005155
0.003348
0.002544
0.004275
0.005681
0.006355
0.005405
0.003753
0.002400
0.003717
0.004994
0.005578
0.004798
0.005020
0.006603
0.005645
0.002389
0.000364
0.004826
0.006234
0.004469
0.006881
0.003786
0.003050
0.005828
0.001000
0.005027
0.004961
0.000844
0.004587
0.003881
0.003645
0.002748
0.003673
0.002697
0.001080
0.001409
0.006624
0.006607
0.001875
0.001354
0.005757
0.005578
0.003716
0.004034
0.002541
0.002622
0.003080
0.003144
0.005760
0.005575
0.004413
0.004703
0.006214
0.005996
0.005530
0.005317
0.006263
0.006005
0.003171
0.003060
0.003851
0.003804
0.002729
0.004298
0.006233
0.005915
0.004923
0.005072
0.006517
0.006157
0.005882
0.005548
0.006946
0.006273
0.001545
0.001298
0.005670
0.004996
0.005355
0.006031
0.007358
0.004840
0.004484
0.003461
0.005829
0.003814
0.005246
0.004357
0.003292
0.004413
0.004903
0.006842
0.005804
0.007738
0.007513
0.008858
0.008767
0.005826
0.007110
0.005197
0.005856
0.004380
0.004080
0.003411
0.003309
0.005305
0.005281
0.003385
0.003022
0.005705
0.005954
0.005092
0.004760
0.003390
0.003146
0.006113
0.006570
0.005268
0.005584
0.004252
0.004362
0.004831
0.004645
0.004857
0.005288
0.005753
0.005698
0.003907
0.003850
0.009134
0.008922
0.005202
0.003721
0.004974
0.005119
0.004031
0.004147
0.008072
0.008691
0.005791
0.003271
0.007258
0.004298
0.004582
0.008174
0.008535
0.005899
0.000812
0.004341
0.001135
0.005171
0.006446
0.006483
0.001203
0.002067
0.006616
0.005476
0.006061
0.000705
0.003217
0.004633
0.004455
0.003934
0.003383
0.003571
0.002878
0.003895
0.003438
0.003905
0.004027
0.005525
0.005396
0.005773
0.005891
0.006139
0.006205
0.001466
0.001881
0.006625
0.006603
0.001368
0.001735
0.006117
0.005845
0.003334
0.002285
0.004896
0.004849
0.002932
0.003040
0.005527
0.005358
0.005980
0.005983
0.004556
0.003824
0.003956
0.004256
0.005086
0.005197
0.004554
0.004247
0.004332
0.005526
0.005689
0.003543
0.003595
0.006953
0.005705
0.003843
0.002452
0.003424
0.004682
0.006991
0.005541
0.005476
0.005843
0.007246
0.003812
0.005168
0.004881
0.003265
0.003699
0.005895
0.004003
0.005441
0.003034
0.004366
0.004855
0.006864
0.005540
0.007758
0.007427
0.008846
0.008762
0.006051
0.006844
0.005621
0.004900
0.004407
0.004691
0.005353
0.005081
0.005955
0.005874
0.002852
0.002498
0.004675
0.004987
0.006232
0.006678
0.005547
0.005569
0.003712
0.003847
0.005259
0.004978
0.003327
0.003222
0.004257
0.004284
0.006045
0.005956
0.004070
0.003529
0.004039
0.003848
0.008951
0.008926
0.005532
0.004170
0.004989
0.004868
0.005616
0.005392
0.005935
0.006116
0.008091
0.008602
0.003259
0.003096
0.007140
0.008122
0.008433
0.006761
0.007783
0.008125
0.008018
0.007712
0.006774
0.007618
0.007970
0.006698
0.006933
0.009229
0.008699
0.006815
0.009171
0.006710
0.006893
0.009379
0.006864
0.007024
0.006918
0.007141
0.006859
0.007835
0.008203
0.008211
0.007940
0.006770
0.007805
0.008214
0.006820
0.006842
0.009459
0.008890
0.006723
0.009523
0.006780
0.006972
0.009666
0.007019
0.007152
0.007059
0.007183
0.004358
0.006046
0.005625
0.005762
0.006082
0.005629
0.005565
0.003677
0.002185
0.003923
0.003928
0.001446
0.002297
0.002401
0.004496
0.005299
0.005569
0.004372
0.003960
0.003097
0.005703
0.004408
0.006184
0.005966
0.006740
0.005979
0.006139
0.005986
0.004505
0.005314
0.003051
0.004750
0.003519
0.003619
0.003031
0.004543
0.003219
0.001887
0.004697
0.006043
0.006288
0.005154
0.005874
0.005737
0.005822
0.000618
0.005864
0.002380
0.002302
0.002217
0.001636
0.004312
0.002333
0.002272
0.002289
0.004518
0.004098
0.004340
0.004082
0.003317
0.003988
0.003891
0.005646
0.001731
0.005302
0.005157
0.005199
0.003491
0.005413
0.005387
0.003575
0.004638
0.003111
0.002566
0.003628
0.005644
0.004644
0.004508
0.004419
0.005388
0.004871
0.004854
0.001928
0.005377
0.004989
0.005086
0.005839
0.004999
0.003450
0.003469
0.003382
0.003269
0.006479
0.005696
0.005957
0.002551
0.006200
0.003121
0.000542
0.003683
0.003110
0.001614
0.000433
0.002394
0.000877
0.004358
0.006046
0.005625
0.005762
0.006082
0.005629
0.005565
0.003677
0.002185
0.003923
0.003928
0.001446
0.002297
0.002401
0.004496
0.005299
0.005569
0.004372
0.003960
0.003097
0.005703
0.004408
0.006184
0.005966
0.006740
0.005979
0.006139
0.005986
0.004505
0.005314
0.003051
0.004750
0.003519
0.003619
0.003031
0.004543
0.003219
0.001887
0.004697
0.006043
0.006288
0.005154
0.005874
0.005737
0.005822
0.000618
0.005864
0.002380
0.002302
0.002217
0.001636
0.004312
0.002333
0.002272
0.002289
0.004518
0.004098
0.004340
0.004082
0.003317
0.003988
0.003891
0.005646
0.001731
0.005302
0.005157
0.005199
0.003491
0.005413
0.005387
0.003575
0.004638
0.003111
0.002566
0.003628
0.005644
0.004644
0.004508
0.004419
0.005388
0.004871
0.004854
0.001928
0.005377
0.004989
0.005086
0.005839
0.004999
0.003450
0.003469
0.003382
0.003269
0.006479
0.005696
0.005957
0.002551
0.006200
0.003121
0.000542
0.003683
0.003110
0.001614
0.000433
0.002394
0.000877
