# vtk DataFile Version 2.0
Unstructured Grid Example
ASCII
DATASET UNSTRUCTURED_GRID
POINTS 630 float
0.000178 0.499829 -0.000208 
0.500199 -0.000153 0.000241 
0.000187 -0.500172 0.000207 
-0.499802 -0.000160 -0.000238 
0.000183 0.499828 4.000198 
0.500195 -0.000161 3.999772 
0.000182 -0.500168 3.999805 
-0.499806 -0.000160 4.000226 
0.191518 0.461779 -0.000101 
0.353734 0.353399 0.000021 
0.462129 0.191191 0.000140 
0.462143 -0.191500 0.000302 
0.353754 -0.353723 0.000316 
0.191536 -0.462113 0.000284 
-0.191159 -0.462105 0.000097 
-0.353368 -0.353711 -0.000022 
-0.461747 -0.191497 -0.000138 
-0.461743 0.191177 -0.000296 
-0.353362 0.353382 -0.000308 
-0.191159 0.461765 -0.000283 
0.191523 0.461774 4.000093 
0.353738 0.353392 3.999978 
0.462129 0.191183 3.999867 
0.462136 -0.191505 3.999714 
0.353747 -0.353722 3.999700 
0.191529 -0.462110 3.999732 
-0.191162 -0.462103 3.999904 
-0.353369 -0.353712 4.000019 
-0.461750 -0.191499 4.000132 
-0.461747 0.191177 4.000283 
-0.353362 0.353384 4.000299 
-0.191155 0.461767 4.000267 
0.000070 0.499920 0.199799 
-0.000046 0.500011 0.399828 
-0.000135 0.500081 0.599888 
-0.000177 0.500116 0.799951 
-0.000165 0.500107 1.000021 
-0.000091 0.500057 1.200070 
0.000011 0.499985 1.400091 
0.000112 0.499910 1.600079 
0.000178 0.499866 1.800036 
0.000192 0.499858 1.999986 
0.000151 0.499889 2.199948 
0.000077 0.499938 2.399931 
-0.000012 0.500000 2.599933 
-0.000111 0.500079 2.799939 
-0.000159 0.500106 2.999983 
-0.000153 0.500106 3.200042 
-0.000117 0.500072 3.400119 
-0.000029 0.500004 3.600168 
0.000079 0.499914 3.800187 
0.000078 -0.500082 0.200195 
-0.000042 -0.499988 0.400169 
-0.000134 -0.499920 0.600112 
-0.000174 -0.499889 0.800039 
-0.000165 -0.499891 0.999989 
-0.000096 -0.499944 1.199944 
0.000005 -0.500015 1.399924 
0.000103 -0.500086 1.599932 
0.000171 -0.500128 1.799964 
0.000180 -0.500132 1.999994 
0.000164 -0.500122 2.200047 
0.000084 -0.500067 2.400082 
-0.000012 -0.499989 2.600085 
-0.000106 -0.499926 2.800053 
-0.000162 -0.499893 3.000001 
-0.000176 -0.499884 3.199933 
-0.000115 -0.499924 3.399877 
-0.000028 -0.500003 3.599843 
0.000079 -0.500087 3.799817 
0.500093 -0.000058 0.200231 
0.499987 0.000044 0.400200 
0.499909 0.000119 0.600128 
0.499867 0.000152 0.800060 
0.499875 0.000139 0.999982 
0.499932 0.000074 1.199928 
0.500010 -0.000011 1.399905 
0.500105 -0.000097 1.599910 
0.500148 -0.000148 1.799961 
0.500165 -0.000159 2.000017 
0.500135 -0.000134 2.200065 
0.500073 -0.000068 2.400089 
0.499993 0.000016 2.600096 
0.499917 0.000095 2.800064 
0.499871 0.000144 3.000012 
0.499878 0.000137 3.199949 
0.499922 0.000100 3.399867 
0.499996 0.000026 3.599812 
0.500096 -0.000070 3.799783 
-0.499905 -0.000065 0.199777 
-0.500015 0.000038 0.399808 
-0.500093 0.000115 0.599872 
-0.500128 0.000153 0.799943 
-0.500127 0.000143 1.000012 
-0.500067 0.000079 1.200068 
-0.499987 -0.000006 1.400093 
-0.499901 -0.000092 1.600084 
-0.499855 -0.000148 1.800041 
-0.499830 -0.000164 1.999997 
-0.499865 -0.000139 2.199948 
-0.499919 -0.000070 2.399911 
-0.500011 0.000015 2.599913 
-0.500081 0.000090 2.799933 
-0.500115 0.000146 2.999999 
-0.500128 0.000148 3.200069 
-0.500085 0.000099 3.400122 
-0.500006 0.000030 3.600184 
-0.499902 -0.000071 3.800214 
0.354427 0.352659 0.677909 
0.354658 0.352459 0.208734 
0.353558 0.353548 1.385405 
0.353687 0.353434 1.658921 
0.353597 0.353494 0.913177 
0.353429 0.353663 1.116543 
0.353742 0.353381 1.916348 
0.353450 0.353649 2.800005 
0.353639 0.353480 2.393599 
0.353718 0.353412 2.158235 
0.353528 0.353579 2.624483 
0.353416 0.353680 2.938315 
0.340668 0.365978 3.350660 
0.353536 0.353571 3.624880 
0.457661 0.201501 3.806606 
0.201656 0.457485 3.806813 
0.473051 0.161967 3.648804 
0.161951 0.473036 3.649040 
0.468410 0.174962 0.318795 
0.177648 0.467363 0.318495 
0.191347 0.461929 1.393267 
0.461948 0.191334 1.393178 
0.188791 0.462913 2.034976 
0.463245 0.188430 2.035005 
0.477400 0.148626 2.587880 
0.148605 0.477401 2.587762 
0.149975 0.477043 3.007002 
0.476781 0.150302 3.007033 
0.186399 0.463987 3.472225 
0.463844 0.186579 3.472053 
0.191270 0.461991 1.249235 
0.461880 0.191403 1.249152 
0.191424 0.461869 1.539763 
0.462018 0.191272 1.539676 
0.452262 0.213047 3.229335 
0.164222 0.472330 3.252983 
0.193435 0.461103 0.545653 
0.461884 0.191354 0.546202 
0.178709 0.467039 0.783136 
0.467072 0.178222 0.783259 
0.176418 0.467905 1.022728 
0.467728 0.176502 1.022723 
0.176991 0.467547 1.776869 
0.467850 0.176655 1.776819 
0.465398 0.182890 2.396081 
0.183046 0.465256 2.395988 
0.191232 0.462028 2.799461 
0.461845 0.191439 2.799529 
0.357648 0.349406 0.457151 
0.353672 0.353449 3.866514 
0.328534 0.376914 3.144362 
0.413662 0.280787 3.079764 
0.446717 0.224728 2.236599 
0.225001 0.446473 2.236545 
0.091146 0.491510 1.901042 
0.491819 0.090791 1.901027 
0.090178 0.491893 0.901459 
0.491683 0.090233 0.901507 
0.489987 0.100156 3.901502 
0.100403 0.489716 3.901827 
0.421427 0.269100 2.502357 
0.269160 0.421363 2.502301 
0.463274 0.188304 0.121368 
0.189411 0.462674 0.121117 
0.353424 -0.353433 0.785508 
0.353457 -0.353474 0.585603 
0.342205 -0.364593 0.330586 
0.353673 -0.353658 1.672765 
0.353424 -0.353448 0.977770 
0.353574 -0.353579 1.424318 
0.353718 -0.353692 1.894620 
0.353469 -0.353478 2.799680 
0.353695 -0.353672 2.191973 
0.353633 -0.353617 2.421051 
0.353541 -0.353543 2.607617 
0.353430 -0.353447 2.989549 
0.353426 -0.353449 3.179423 
0.343897 -0.362989 3.645233 
0.351091 -0.355883 3.465860 
0.194501 -0.460751 3.810191 
0.169975 -0.470319 0.227295 
0.420025 -0.271541 3.845411 
0.428140 -0.258516 0.182552 
0.154797 -0.475466 3.656897 
0.469856 -0.171153 3.706078 
0.207671 -0.454755 3.472232 
0.450655 -0.216419 3.474957 
0.447676 -0.222948 1.583466 
0.222952 -0.447664 1.583478 
0.459768 -0.196334 1.242208 
0.196317 -0.459784 1.242215 
0.191189 -0.461836 0.793299 
0.461816 -0.191211 0.793309 
0.473023 -0.162153 1.449949 
0.162150 -0.473020 1.449962 
0.225985 -0.446232 2.060664 
0.446264 -0.225968 2.060661 
0.177842 -0.467136 3.048072 
0.466989 -0.178216 3.048082 
0.463409 -0.187824 2.533064 
0.187831 -0.463407 2.533054 
0.194225 -0.460717 0.406624 
0.451550 -0.214676 0.400226 
0.461705 -0.191611 0.595790 
0.191593 -0.461718 0.595799 
0.469503 -0.172266 2.370609 
0.172286 -0.469495 2.370604 
0.179095 -0.466671 1.000860 
0.466647 -0.179123 1.000857 
0.461743 -0.191463 3.268651 
0.189034 -0.462748 3.268620 
0.165305 -0.472068 1.797303 
0.472092 -0.165279 1.797297 
0.200450 -0.457954 2.784746 
0.457926 -0.200500 2.784744 
0.316543 -0.387241 0.152826 
0.316471 -0.387311 3.858501 
0.352104 -0.354813 3.330322 
0.353458 -0.353480 1.121816 
0.444037 -0.230200 2.248876 
0.230226 -0.444020 2.248874 
0.490708 -0.095367 1.105778 
0.095344 -0.490724 1.105791 
0.098496 -0.490360 3.902379 
0.486320 -0.116814 0.129481 
0.353717 -0.353693 2.041978 
0.353505 -0.353519 1.257632 
0.485476 -0.119929 0.264021 
0.490484 -0.096463 2.908234 
0.096340 -0.490510 2.908224 
0.092034 -0.491608 0.107001 
0.483099 -0.129512 3.871400 
-0.353715 -0.353406 0.701841 
-0.364567 -0.342177 0.327081 
-0.353672 -0.353445 0.568050 
-0.353585 -0.353527 1.333475 
-0.353409 -0.353680 1.697475 
-0.353732 -0.353394 0.870791 
-0.353372 -0.353712 1.881120 
-0.368995 -0.337409 2.632740 
-0.353495 -0.353603 2.450766 
-0.353370 -0.353717 2.067340 
-0.351132 -0.355972 2.941535 
-0.353722 -0.353404 3.179520 
-0.362970 -0.343874 3.645512 
-0.356020 -0.351081 3.466077 
-0.460564 -0.194478 3.810572 
-0.470167 -0.169970 0.226146 
-0.271337 -0.419998 3.845658 
-0.257429 -0.428664 0.181974 
-0.475419 -0.154786 3.657243 
-0.171097 -0.469842 3.706238 
-0.454875 -0.207668 3.472494 
-0.216566 -0.450642 3.475109 
-0.222042 -0.448033 1.609036 
-0.447835 -0.222249 1.609106 
-0.208627 -0.454348 1.014607 
-0.454609 -0.208318 1.014631 
-0.453207 -0.211015 2.174294 
-0.210698 -0.453499 2.174334 
-0.466223 -0.180876 0.809549 
-0.181231 -0.465940 0.809609 
-0.194829 -0.460499 1.443197 
-0.460441 -0.194878 1.443294 
-0.197180 -0.459549 2.021553 
-0.459218 -0.197541 2.021548 
-0.184038 -0.464891 2.603480 
-0.467853 -0.176409 2.594177 
-0.197365 -0.459343 3.076359 
-0.467203 -0.178319 3.041408 
-0.460751 -0.194209 0.405207 
-0.211434 -0.453090 0.396673 
-0.467603 -0.177207 0.596790 
-0.177473 -0.467400 0.596926 
-0.181215 -0.465982 1.229912 
-0.466108 -0.181052 1.229992 
-0.191731 -0.461727 3.268746 
-0.462966 -0.189030 3.268803 
-0.471476 -0.166178 1.792625 
-0.165846 -0.471768 1.792579 
-0.177527 -0.467369 2.857669 
-0.441919 -0.233986 2.804894 
-0.386939 -0.316622 0.151530 
-0.387084 -0.316444 3.858837 
-0.355030 -0.352085 3.330481 
-0.353409 -0.353682 2.245867 
-0.353680 -0.353441 1.117349 
-0.490117 -0.099312 1.111176 
-0.099558 -0.489927 1.111111 
-0.491748 -0.090975 0.701535 
-0.091288 -0.491515 0.701677 
-0.165756 -0.471769 2.380788 
-0.471602 -0.165933 2.380684 
-0.490085 -0.098475 3.902792 
-0.116210 -0.486391 0.129074 
-0.118945 -0.485684 0.262878 
-0.353488 -0.353615 1.522598 
-0.316920 -0.386723 2.768061 
-0.488807 -0.105595 2.911555 
-0.491339 -0.092013 0.106382 
-0.129289 -0.483075 3.871538 
-0.353677 0.353653 0.703577 
-0.353636 0.353615 0.564797 
-0.342156 0.364547 0.326240 
-0.353505 0.353513 1.465173 
-0.353427 0.353444 1.676003 
-0.353690 0.353671 0.911484 
-0.353598 0.353588 1.258137 
-0.353642 0.353624 2.799922 
-0.353387 0.353412 1.920273 
-0.353476 0.353487 2.393491 
-0.353407 0.353429 2.159321 
-0.353574 0.353570 2.624364 
-0.353681 0.353654 2.989579 
-0.353675 0.353671 3.179577 
-0.343872 0.362949 3.645740 
-0.351218 0.355981 3.466250 
-0.194316 0.460564 3.810703 
-0.169859 0.470165 0.225973 
-0.419786 0.271339 3.845990 
-0.428476 0.257436 0.181422 
-0.154784 0.475414 3.657335 
-0.469758 0.171090 3.706584 
-0.207821 0.454843 3.472596 
-0.450751 0.216523 3.475334 
-0.445616 0.227114 1.001621 
-0.227137 0.445601 1.001639 
-0.183779 0.465170 0.814153 
-0.465188 0.183753 0.814159 
-0.188423 0.462935 2.036553 
-0.462909 0.188448 2.036567 
-0.477407 0.148622 2.587709 
[...]
POINT_DATA 630
SCALARS u float 1
LOOKUP_TABLE default
0.008682
0.009358
0.008817
0.009376
0.008598
0.009175
0.008485
0.009088
0.006966
0.006413
0.007511
0.010677
0.011050
0.010366
0.007126
0.006581
0.007632
0.010537
0.010800
0.010214
0.007072
0.006618
0.007553
0.010323
0.010615
0.009903
0.007033
0.006569
0.007530
0.010227
0.010575
0.009916
0.006110
0.004805
0.005197
0.005850
0.005325
0.003449
0.002490
0.004414
0.006077
0.006442
0.005229
0.003236
0.001841
0.004010
0.005159
0.005137
0.004889
0.004585
0.005947
0.006076
0.004694
0.005175
0.005656
0.005315
0.003354
0.002093
0.004047
0.005819
0.006011
0.005638
0.003635
0.002328
0.003756
0.005226
0.005961
0.004976
0.004295
0.005841
0.006883
0.005511
0.005311
0.005679
0.005048
0.003330
0.002576
0.004557
0.005739
0.006171
0.005416
0.003605
0.002619
0.003791
0.005218
0.005137
0.004946
0.005096
0.006662
0.006754
0.005269
0.005259
0.005586
0.005155
0.003348
0.002544
0.004275
0.005681
0.006355
0.005405
0.003753
0.002400
0.003717
0.004994
0.005578
0.004798
0.005020
0.006603
0.005645
0.002389
0.000364
0.004826
0.006234
0.004469
0.006881
0.003786
0.003050
0.005828
0.001000
0.005027
0.004961
0.000844
0.004587
0.003881
0.003645
0.002748
0.003673
0.002697
0.001080
0.001409
0.006624
0.006607
0.001875
0.001354
0.005757
0.005578
0.003716
0.004034
0.002541
0.002622
0.003080
0.003144
0.005760
0.005575
0.004413
0.004703
0.006214
0.005996
0.005530
0.005317
0.006263
0.006005
0.003171
0.003060
0.003851
0.003804
0.002729
0.004298
0.006233
0.005915
0.004923
0.005072
0.006517
0.006157
0.005882
0.005548
0.006946
0.006273
0.001545
0.001298
0.005670
0.004996
0.005355
0.006031
0.007358
0.004840
0.004484
0.003461
0.005829
0.003814
0.005246
0.004357
0.003292
0.004413
0.004903
0.006842
0.005804
0.007738
0.007513
0.008858
0.008767
0.005826
0.007110
0.005197
0.005856
0.004380
0.004080
0.003411
0.003309
0.005305
0.005281
0.003385
0.003022
0.005705
0.005954
0.005092
0.004760
0.003390
0.003146
0.006113
0.006570
0.005268
0.005584
0.004252
0.004362
0.004831
0.004645
0.004857
0.005288
0.005753
0.005698
0.003907
0.003850
0.009134
0.008922
0.005202
0.003721
0.004974
0.005119
0.004031
0.004147
0.008072
0.008691
0.005791
0.003271
0.007258
0.004298
0.004582
0.008174
0.008535
0.005899
0.000812
0.004341
0.001135
0.005171
0.006446
0.006483
0.001203
0.002067
0.006616
0.005476
0.006061
0.000705
0.003217
0.004633
0.004455
0.003934
0.003383
0.003571
0.002878
0.003895
0.003438
0.003905
0.004027
0.005525
0.005396
0.005773
0.005891
0.006139
0.006205
0.001466
0.001881
0.006625
0.006603
0.001368
0.001735
0.006117
0.005845
0.003334
0.002285
0.004896
0.004849
0.002932
0.003040
0.005527
0.005358
0.005980
0.005983
0.004556
0.003824
0.003956
0.004256
0.005086
0.005197
0.004554
0.004247
0.004332
0.005526
0.005689
0.003543
0.003595
0.006953
0.005705
0.003843
0.002452
0.003424
0.004682
0.006991
0.005541
0.005476
0.005843
0.007246
0.003812
0.005168
0.004881
0.003265
0.003699
0.005895
0.004003
0.005441
0.003034
0.004366
0.004855
0.006864
0.005540
0.007758
0.007427
0.008846
0.008762
0.006051
0.006844
0.005621
0.004900
0.004407
0.004691
0.005353
0.005081
0.005955
0.005874
0.002852
0.002498
0.004675
0.004987
0.006232
0.006678
0.005547
0.005569
0.003712
0.003847
0.005259
0.004978
0.003327
0.003222
0.004257
0.004284
0.006045
0.005956
0.004070
0.003529
0.004039
0.003848
0.008951
0.008926
0.005532
0.004170
0.004989
0.004868
0.005616
0.005392
0.005935
0.006116
0.008091
0.008602
0.003259
0.003096
0.007140
0.008122
0.008433
0.006761
0.007783
0.008125
0.008018
0.007712
0.006774
0.007618
0.007970
0.006698
0.006933
0.009229
0.008699
0.006815
0.009171
0.006710
0.006893
0.009379
0.006864
0.007024
0.006918
0.007141
0.006859
0.007835
0.008203
0.008211
0.007940
0.006770
0.007805
0.008214
0.006820
0.006842
0.009459
0.008890
0.006723
0.009523
0.006780
0.006972
0.009666
0.007019
0.007152
0.007059
0.007183
0.004358
0.006046
0.005625
0.005762
0.006082
0.005629
0.005565
0.003677
0.002185
0.003923
0.003928
0.001446
0.002297
0.002401
0.004496
0.005299
0.005569
0.004372
0.003960
0.003097
0.005703
0.004408
0.006184
0.005966
0.006740
0.005979
0.006139
0.005986
0.004505
0.005314
0.003051
0.004750
0.003519
0.003619
0.003031
0.004543
0.003219
0.001887
0.004697
0.006043
0.006288
0.005154
0.005874
0.005737
0.005822
0.000618
0.005864
0.002380
0.002302
0.002217
0.001636
0.004312
0.002333
0.002272
0.002289
0.004518
0.004098
0.004340
0.004082
0.003317
0.003988
0.003891
0.005646
0.001731
0.005302
0.005157
0.005199
0.003491
0.005413
0.005387
0.003575
0.004638
0.003111
0.002566
0.003628
0.005644
0.004644
0.004508
0.004419
0.005388
0.004871
0.004854
0.001928
0.005377
0.004989
0.005086
0.005839
0.004999
0.003450
0.003469
0.003382
0.003269
0.006479
0.005696
0.005957
0.002551
0.006200
0.003121
0.000542
0.003683
0.003110
0.001614
0.000433
0.002394
0.000877
0.004358
0.006046
0.005625
0.005762
0.006082
0.005629
0.005565
0.003677
0.002185
0.003923
0.003928
0.001446
0.002297
0.002401
0.004496
0.005299
0.005569
0.004372
0.003960
0.003097
0.005703
0.004408
0.006184
0.005966
0.006740
0.005979
0.006139
0.005986
0.004505
0.005314
0.003051
0.004750
0.003519
0.003619
0.003031
0.004543
0.003219
0.001887
0.004697
0.006043
0.006288
0.005154
0.005874
0.005737
0.005822
0.000618
0.005864
0.002380
0.002302
0.002217
0.001636
0.004312
0.002333
0.002272
0.002289
0.004518
0.004098
0.004340
0.004082
0.003317
0.003988
0.003891
0.005646
0.001731
0.005302
0.005157
0.005199
0.003491
0.005413
0.005387
0.003575
0.004638
0.003111
0.002566
0.003628
0.005644
0.004644
0.004508
0.004419
0.005388
0.004871
0.004854
0.001928
0.005377
0.004989
0.005086
0.005839
0.004999
0.003450
0.003469
0.003382
0.003269
0.006479
0.005696
0.005957
0.002551
0.006200
0.003121
0.000542
0.003683
0.003110
0.001614
0.000433
0.002394
0.000877
