# vtk DataFile Version 2.0
Unstructured Grid Example
ASCII
DATASET UNSTRUCTURED_GRID
POINTS 630 float
-0.000219 0.500211 0.000257 
0.499755 0.000189 -0.000297 
-0.000231 -0.499788 -0.000255 
-0.500244 0.000197 0.000294 
-0.000226 0.500212 3.999756 
0.499759 0.000199 4.000282 
-0.000224 -0.499793 4.000241 
-0.500239 0.000197 3.999722 
0.191125 0.462138 0.000125 
0.353331 0.353743 -0.000025 
0.461707 0.191528 -0.000172 
0.461689 -0.191147 -0.000373 
0.353306 -0.353344 -0.000389 
0.191102 -0.461726 -0.000350 
-0.191567 -0.461736 -0.000120 
-0.353782 -0.353359 0.000027 
-0.462177 -0.191150 0.000170 
-0.462182 0.191545 0.000365 
-0.353790 0.353765 0.000380 
-0.191567 0.462155 0.000349 
0.191118 0.462144 3.999885 
0.353326 0.353753 4.000027 
0.461706 0.191538 4.000164 
0.461698 -0.191140 4.000353 
0.353315 -0.353345 4.000369 
0.191111 -0.461730 4.000330 
-0.191564 -0.461738 4.000118 
-0.353781 -0.353357 3.999976 
-0.462174 -0.191147 3.999837 
-0.462178 0.191544 3.999651 
-0.353789 0.353762 3.999632 
-0.191572 0.462153 3.999671 
-0.000086 0.500099 0.200247 
0.000056 0.499987 0.400212 
0.000167 0.499901 0.600138 
0.000219 0.499857 0.800061 
0.000203 0.499867 0.999974 
0.000112 0.499930 1.199913 
-0.000014 0.500018 1.399888 
-0.000138 0.500111 1.599903 
-0.000220 0.500166 1.799956 
-0.000237 0.500175 2.000017 
-0.000186 0.500137 2.200064 
-0.000095 0.500076 2.400085 
0.000015 0.500000 2.600083 
0.000136 0.499902 2.800075 
0.000196 0.499870 3.000021 
0.000188 0.499869 3.199948 
0.000144 0.499911 3.399854 
0.000036 0.499994 3.599793 
-0.000098 0.500106 3.799769 
-0.000096 -0.499899 0.199759 
0.000052 -0.500015 0.399792 
0.000165 -0.500099 0.599862 
0.000215 -0.500137 0.799951 
0.000203 -0.500134 1.000014 
0.000118 -0.500069 1.200070 
-0.000006 -0.499982 1.400094 
-0.000127 -0.499894 1.600084 
-0.000210 -0.499842 1.800045 
-0.000222 -0.499837 2.000007 
-0.000202 -0.499850 2.199942 
-0.000104 -0.499918 2.399899 
0.000014 -0.500014 2.599895 
0.000131 -0.500091 2.799935 
0.000200 -0.500131 2.999999 
0.000217 -0.500144 3.200083 
0.000142 -0.500093 3.400152 
0.000035 -0.499997 3.600194 
-0.000097 -0.499893 3.800225 
0.499886 0.000071 0.199715 
0.500016 -0.000055 0.399754 
0.500112 -0.000147 0.599842 
0.500164 -0.000188 0.799926 
0.500154 -0.000171 1.000022 
0.500084 -0.000092 1.200088 
0.499987 0.000014 1.400117 
0.499870 0.000120 1.600111 
0.499817 0.000183 1.800049 
0.499797 0.000195 1.999979 
0.499833 0.000166 2.199920 
0.499910 0.000084 2.399890 
0.500009 -0.000019 2.599882 
0.500102 -0.000117 2.799921 
0.500159 -0.000178 2.999986 
0.500151 -0.000169 3.200063 
0.500096 -0.000124 3.400164 
0.500005 -0.000032 3.600231 
0.499881 0.000086 3.800268 
-0.500117 0.000080 0.200275 
-0.499982 -0.000047 0.400236 
-0.499886 -0.000142 0.600157 
-0.499842 -0.000189 0.800071 
-0.499844 -0.000176 0.999986 
-0.499917 -0.000098 1.199916 
-0.500016 0.000008 1.399885 
-0.500122 0.000114 1.599897 
-0.500179 0.000182 1.799949 
-0.500209 0.000203 2.000004 
-0.500166 0.000172 2.200064 
-0.500100 0.000086 2.400110 
-0.499986 -0.000019 2.600107 
-0.499900 -0.000110 2.800082 
-0.499858 -0.000179 3.000002 
-0.499843 -0.000182 3.199915 
-0.499895 -0.000122 3.399850 
-0.499992 -0.000037 3.599773 
-0.500121 0.000087 3.799737 
0.354777 0.352349 0.677883 
0.354508 0.352580 0.208689 
0.353548 0.353559 1.385431 
0.353389 0.353701 1.658931 
0.353980 0.353146 0.913177 
0.353707 0.353418 1.116561 
0.353320 0.353766 1.916333 
0.353681 0.353436 2.799994 
0.353447 0.353644 2.393580 
0.353351 0.353727 2.158228 
0.353584 0.353522 2.624460 
0.353723 0.353398 2.938307 
0.340977 0.365706 3.350670 
0.353575 0.353532 3.624923 
0.457453 0.201662 3.806880 
0.201471 0.457669 3.806625 
0.473032 0.161949 3.649105 
0.161968 0.473051 3.648813 
0.468370 0.174943 0.318493 
0.177658 0.467390 0.318717 
0.191335 0.461953 1.393182 
0.461930 0.191351 1.393292 
0.188361 0.463256 2.034996 
0.462847 0.188805 2.034960 
0.477407 0.148599 2.587727 
0.148624 0.477406 2.587873 
0.150368 0.476773 3.007038 
0.477096 0.149964 3.007000 
0.186611 0.463833 3.472063 
0.464009 0.186389 3.472275 
0.191430 0.461877 1.249156 
0.462013 0.191267 1.249258 
0.191240 0.462028 1.539685 
0.461844 0.191428 1.539793 
0.452593 0.212710 3.229405 
0.164585 0.472052 3.252909 
0.193710 0.460908 0.545797 
0.462102 0.191102 0.545999 
0.179120 0.466733 0.783188 
0.467403 0.177860 0.783173 
0.176783 0.467628 1.022711 
0.468033 0.176185 1.022745 
0.176592 0.467875 1.776817 
0.467501 0.177006 1.776879 
0.465229 0.183051 2.395961 
0.182859 0.465404 2.396075 
0.191477 0.461832 2.799525 
0.462057 0.191222 2.799441 
0.357810 0.349251 0.457112 
0.353407 0.353682 3.866562 
0.328926 0.376576 3.144363 
0.414011 0.280442 3.079765 
0.446429 0.225009 2.236527 
0.224672 0.446730 2.236595 
0.090717 0.491840 1.901024 
0.491459 0.091153 1.901043 
0.090577 0.491613 0.901483 
0.491987 0.089889 0.901464 
0.489664 0.100415 3.901904 
0.100110 0.489999 3.901503 
0.421349 0.269159 2.502274 
0.269084 0.421427 2.502343 
0.462992 0.188517 0.121057 
0.189158 0.462913 0.121343 
0.353713 -0.353702 0.785304 
0.353672 -0.353651 0.585187 
0.342149 -0.364547 0.329980 
0.353406 -0.353424 1.672952 
0.353712 -0.353683 0.977787 
0.353528 -0.353522 1.424596 
0.353351 -0.353383 1.894683 
0.353658 -0.353646 2.799490 
0.353379 -0.353407 2.191833 
0.353456 -0.353475 2.420769 
0.353568 -0.353566 2.607346 
0.353706 -0.353685 2.989513 
0.353710 -0.353682 3.179598 
0.343860 -0.362944 3.645798 
0.351243 -0.355991 3.466304 
0.194292 -0.460543 3.810762 
0.169820 -0.470158 0.226713 
0.419756 -0.271318 3.846058 
0.427899 -0.258334 0.181890 
0.154778 -0.475401 3.657375 
0.469744 -0.171081 3.706653 
0.207848 -0.454848 3.472615 
0.450777 -0.216540 3.475412 
0.447473 -0.222756 1.583699 
0.222750 -0.447488 1.583685 
0.459883 -0.196444 1.242442 
0.196465 -0.459863 1.242433 
0.191530 -0.462068 0.793143 
0.462092 -0.191502 0.793131 
0.472945 -0.162075 1.450208 
0.162079 -0.472948 1.450192 
0.225615 -0.445939 2.060622 
0.445899 -0.225636 2.060626 
0.178189 -0.467377 3.048093 
0.467263 -0.178500 3.048088 
0.463361 -0.187790 2.532788 
0.187781 -0.463364 2.532801 
0.194289 -0.460730 0.406121 
0.451568 -0.214726 0.399684 
0.461892 -0.191823 0.595456 
0.191846 -0.461875 0.595444 
0.469309 -0.172093 2.370370 
0.172068 -0.469318 2.370376 
0.179432 -0.466884 1.000906 
0.466913 -0.179398 1.000909 
0.461974 -0.191696 3.268886 
0.189340 -0.462937 3.268871 
0.164935 -0.471786 1.797411 
0.471757 -0.164968 1.797418 
0.200654 -0.458104 2.784544 
0.458097 -0.200686 2.784548 
0.316278 -0.387010 0.152154 
0.316197 -0.387063 3.859142 
0.352345 -0.354984 3.330636 
0.353671 -0.353643 1.121969 
0.443761 -0.229951 2.248698 
0.229919 -0.443782 2.248701 
0.490916 -0.095594 1.105912 
0.095623 -0.490896 1.105896 
0.098191 -0.490069 3.902899 
0.486021 -0.116598 0.128861 
0.353352 -0.353381 2.041951 
0.353613 -0.353595 1.257869 
0.485333 -0.119856 0.263441 
0.490707 -0.096720 2.908125 
0.096643 -0.490721 2.908135 
0.091738 -0.491325 0.106460 
0.482798 -0.129273 3.871996 
-0.353354 -0.353735 0.701865 
-0.364579 -0.342183 0.327147 
-0.353408 -0.353687 0.568088 
-0.353514 -0.353586 1.333454 
-0.353731 -0.353397 1.697451 
-0.353333 -0.353750 0.870800 
-0.353777 -0.353357 1.881109 
-0.368930 -0.337473 2.632778 
-0.353625 -0.353492 2.450781 
-0.353780 -0.353352 2.067337 
-0.350794 -0.356276 2.941545 
-0.353346 -0.353738 3.179506 
-0.362967 -0.343888 3.645455 
-0.355822 -0.351255 3.466037 
-0.460774 -0.194319 3.810292 
-0.470329 -0.169869 0.226462 
-0.271569 -0.419789 3.845753 
-0.257619 -0.428492 0.181860 
-0.475460 -0.154791 3.656949 
-0.171150 -0.469762 3.706457 
-0.454699 -0.207852 3.472296 
-0.216359 -0.450793 3.475234 
-0.222283 -0.447824 1.609094 
-0.448067 -0.222028 1.609008 
-0.208260 -0.454621 1.014633 
-0.454300 -0.208641 1.014603 
-0.453549 -0.210682 2.174340 
-0.211073 -0.453189 2.174290 
-0.465887 -0.181251 0.809625 
-0.180813 -0.466235 0.809551 
-0.194884 -0.460433 1.443283 
-0.460505 -0.194823 1.443163 
-0.197609 -0.459206 2.021540 
-0.459615 -0.197163 2.021545 
-0.184004 -0.464920 2.603376 
-0.467824 -0.176443 2.594314 
-0.196956 -0.459643 3.076390 
-0.466882 -0.178682 3.041393 
-0.460689 -0.194307 0.405459 
-0.211340 -0.453146 0.396518 
-0.467367 -0.177485 0.596970 
-0.177158 -0.467617 0.596802 
-0.181021 -0.466110 1.229986 
-0.465954 -0.181222 1.229888 
-0.191365 -0.461993 3.268824 
-0.462669 -0.189344 3.268699 
-0.471824 -0.165830 1.792562 
-0.166238 -0.471465 1.792618 
-0.177233 -0.467601 2.857620 
-0.441698 -0.234204 2.804963 
-0.387179 -0.316430 0.151645 
-0.387343 -0.316230 3.858728 
-0.354717 -0.352368 3.330451 
-0.353731 -0.353395 2.245873 
-0.353397 -0.353692 1.117335 
-0.489888 -0.099568 1.111098 
-0.099264 -0.490122 1.111178 
-0.491477 -0.091300 0.701711 
-0.090913 -0.491765 0.701535 
-0.165971 -0.471597 2.380685 
-0.471802 -0.165752 2.380813 
-0.490408 -0.098218 3.902389 
-0.116467 -0.486144 0.128762 
-0.119025 -0.485580 0.262587 
-0.353635 -0.353477 1.522574 
-0.316710 -0.386915 2.768059 
-0.488555 -0.105885 2.911615 
-0.491655 -0.091775 0.106806 
-0.129547 -0.482828 3.871827 
-0.353400 0.353430 0.703860 
-0.353451 0.353477 0.565224 
-0.342209 0.364603 0.326837 
-0.353613 0.353603 1.464890 
-0.353709 0.353688 1.675791 
-0.353385 0.353409 0.911535 
-0.353498 0.353510 1.257898 
-0.353444 0.353467 2.800096 
-0.353759 0.353727 1.920234 
-0.353649 0.353635 2.393732 
-0.353734 0.353707 2.159459 
-0.353529 0.353532 2.624609 
-0.353396 0.353430 2.989589 
-0.353403 0.353409 3.179436 
-0.343891 0.362993 3.645173 
-0.351087 0.355871 3.465823 
-0.194520 0.460775 3.810130 
-0.170006 0.470332 0.226548 
-0.420050 0.271566 3.845344 
-0.428710 0.257630 0.182083 
-0.154794 0.475466 3.656835 
-0.469866 0.171159 3.706031 
-0.207663 0.454739 3.472170 
-0.450659 0.216412 3.474954 
-0.445365 0.226849 1.001597 
-0.226821 0.445383 1.001575 
-0.183423 0.464932 0.814273 
-0.464910 0.183454 0.814265 
-0.188814 0.463228 2.036625 
-0.463261 0.188783 2.036609 
-0.477399 0.148603 2.587945 
[...]
POINT_DATA 630
SCALARS u float 1
LOOKUP_TABLE default
0.008682
0.009358
0.008817
0.009376
0.008598
0.009175
0.008485
0.009088
0.006966
0.006413
0.007511
0.010677
0.011050
0.010366
0.007126
0.006581
0.007632
0.010537
0.010800
0.010214
0.007072
0.006618
0.007553
0.010323
0.010615
0.009903
0.007033
0.006569
0.007530
0.010227
0.010575
0.009916
0.006110
0.004805
0.005197
0.005850
0.005325
0.003449
0.002490
0.004414
0.006077
0.006442
0.005229
0.003236
0.001841
0.004010
0.005159
0.005137
0.004889
0.004585
0.005947
0.006076
0.004694
0.005175
0.005656
0.005315
0.003354
0.002093
0.004047
0.005819
0.006011
0.005638
0.003635
0.002328
0.003756
0.005226
0.005961
0.004976
0.004295
0.005841
0.006883
0.005511
0.005311
0.005679
0.005048
0.003330
0.002576
0.004557
0.005739
0.006171
0.005416
0.003605
0.002619
0.003791
0.005218
0.005137
0.004946
0.005096
0.006662
0.006754
0.005269
0.005259
0.005586
0.005155
0.003348
0.002544
0.004275
0.005681
0.006355
0.005405
0.003753
0.002400
0.003717
0.004994
0.005578
0.004798
0.005020
0.006603
0.005645
0.002389
0.000364
0.004826
0.006234
0.004469
0.006881
0.003786
0.003050
0.005828
0.001000
0.005027
0.004961
0.000844
0.004587
0.003881
0.003645
0.002748
0.003673
0.002697
0.001080
0.001409
0.006624
0.006607
0.001875
0.001354
0.005757
0.005578
0.003716
0.004034
0.002541
0.002622
0.003080
0.003144
0.005760
0.005575
0.004413
0.004703
0.006214
0.005996
0.005530
0.005317
0.006263
0.006005
0.003171
0.003060
0.003851
0.003804
0.002729
0.004298
0.006233
0.005915
0.004923
0.005072
0.006517
0.006157
0.005882
0.005548
0.006946
0.006273
0.001545
0.001298
0.005670
0.004996
0.005355
0.006031
0.007358
0.004840
0.004484
0.003461
0.005829
0.003814
0.005246
0.004357
0.003292
0.004413
0.004903
0.006842
0.005804
0.007738
0.007513
0.008858
0.008767
0.005826
0.007110
0.005197
0.005856
0.004380
0.004080
0.003411
0.003309
0.005305
0.005281
0.003385
0.003022
0.005705
0.005954
0.005092
0.004760
0.003390
0.003146
0.006113
0.006570
0.005268
0.005584
0.004252
0.004362
0.004831
0.004645
0.004857
0.005288
0.005753
0.005698
0.003907
0.003850
0.009134
0.008922
0.005202
0.003721
0.004974
0.005119
0.004031
0.004147
0.008072
0.008691
0.005791
0.003271
0.007258
0.004298
0.004582
0.008174
0.008535
0.005899
0.000812
0.004341
0.001135
0.005171
0.006446
0.006483
0.001203
0.002067
0.006616
0.005476
0.006061
0.000705
0.003217
0.004633
0.004455
0.003934
0.003383
0.003571
0.002878
0.003895
0.003438
0.003905
0.004027
0.005525
0.005396
0.005773
0.005891
0.006139
0.006205
0.001466
0.001881
0.006625
0.006603
0.001368
0.001735
0.006117
0.005845
0.003334
0.002285
0.004896
0.004849
0.002932
0.003040
0.005527
0.005358
0.005980
0.005983
0.004556
0.003824
0.003956
0.004256
0.005086
0.005197
0.004554
0.004247
0.004332
0.005526
0.005689
0.003543
0.003595
0.006953
0.005705
0.003843
0.002452
0.003424
0.004682
0.006991
0.005541
0.005476
0.005843
0.007246
0.003812
0.005168
0.004881
0.003265
0.003699
0.005895
0.004003
0.005441
0.003034
0.004366
0.004855
0.006864
0.005540
0.007758
0.007427
0.008846
0.008762
0.006051
0.006844
0.005621
0.004900
0.004407
0.004691
0.005353
0.005081
0.005955
0.005874
0.002852
0.002498
0.004675
0.004987
0.006232
0.006678
0.005547
0.005569
0.003712
0.003847
0.005259
0.004978
0.003327
0.003222
0.004257
0.004284
0.006045
0.005956
0.004070
0.003529
0.004039
0.003848
0.008951
0.008926
0.005532
0.004170
0.004989
0.004868
0.005616
0.005392
0.005935
0.006116
0.008091
0.008602
0.003259
0.003096
0.007140
0.008122
0.008433
0.006761
0.007783
0.008125
0.008018
0.007712
0.006774
0.007618
0.007970
0.006698
0.006933
0.009229
0.008699
0.006815
0.009171
0.006710
0.006893
0.009379
0.006864
0.007024
0.006918
0.007141
0.006859
0.007835
0.008203
0.008211
0.007940
0.006770
0.007805
0.008214
0.006820
0.006842
0.009459
0.008890
0.006723
0.009523
0.006780
0.006972
0.009666
0.007019
0.007152
0.007059
0.007183
0.004358
0.006046
0.005625
0.005762
0.006082
0.005629
0.005565
0.003677
0.002185
0.003923
0.003928
0.001446
0.002297
0.002401
0.004496
0.005299
0.005569
0.004372
0.003960
0.003097
0.005703
0.004408
0.006184
0.005966
0.006740
0.005979
0.006139
0.005986
0.004505
0.005314
0.003051
0.004750
0.003519
0.003619
0.003031
0.004543
0.003219
0.001887
0.004697
0.006043
0.006288
0.005154
0.005874
0.005737
0.005822
0.000618
0.005864
0.002380
0.002302
0.002217
0.001636
0.004312
0.002333
0.002272
0.002289
0.004518
0.004098
0.004340
0.004082
0.003317
0.003988
0.003891
0.005646
0.001731
0.005302
0.005157
0.005199
0.003491
0.005413
0.005387
0.003575
0.004638
0.003111
0.002566
0.003628
0.005644
0.004644
0.004508
0.004419
0.005388
0.004871
0.004854
0.001928
0.005377
0.004989
0.005086
0.005839
0.004999
0.003450
0.003469
0.003382
0.003269
0.006479
0.005696
0.005957
0.002551
0.006200
0.003121
0.000542
0.003683
0.003110
0.001614
0.000433
0.002394
0.000877
0.004358
0.006046
0.005625
0.005762
0.006082
0.005629
0.005565
0.003677
0.002185
0.003923
0.003928
0.001446
0.002297
0.002401
0.004496
0.005299
0.005569
0.004372
0.003960
0.003097
0.005703
0.004408
0.006184
0.005966
0.006740
0.005979
0.006139
0.005986
0.004505
0.005314
0.003051
0.004750
0.003519
0.003619
0.003031
0.004543
0.003219
0.001887
0.004697
0.006043
0.006288
0.005154
0.005874
0.005737
0.005822
0.000618
0.005864
0.002380
0.002302
0.002217
0.001636
0.004312
0.002333
0.002272
0.002289
0.004518
0.004098
0.004340
0.004082
0.003317
0.003988
0.003891
0.005646
0.001731
0.005302
0.005157
0.005199
0.003491
0.005413
0.005387
0.003575
0.004638
0.003111
0.002566
0.003628
0.005644
0.004644
0.004508
0.004419
0.005388
0.004871
0.004854
0.001928
0.005377
0.004989
0.005086
0.005839
0.004999
0.003450
0.003469
0.003382
0.003269
0.006479
0.005696
0.005957
0.002551
0.006200
0.003121
0.000542
0.003683
0.003110
0.001614
0.000433
0.002394
0.000877
