# vtk DataFile Version 2.0
Unstructured Grid Example
ASCII
DATASET UNSTRUCTURED_GRID
POINTS 630 float
0.000090 0.499913 -0.000106 
0.500101 -0.000078 0.000123 
0.000095 -0.500088 0.000105 
-0.499899 -0.000081 -0.000121 
0.000093 0.499912 4.000101 
0.500099 -0.000082 3.999884 
0.000093 -0.500086 3.999901 
-0.499901 -0.000081 4.000115 
0.191431 0.461858 -0.000051 
0.353645 0.353475 0.000010 
0.462036 0.191265 0.000071 
0.462043 -0.191422 0.000154 
0.353656 -0.353640 0.000161 
0.191441 -0.462028 0.000145 
-0.191249 -0.462024 0.000050 
-0.353459 -0.353634 -0.000011 
-0.461842 -0.191421 -0.000070 
-0.461840 0.191258 -0.000151 
-0.353456 0.353466 -0.000157 
-0.191249 0.461851 -0.000144 
0.191434 0.461855 4.000047 
0.353647 0.353471 3.999989 
0.462036 0.191261 3.999932 
0.462040 -0.191425 3.999854 
0.353652 -0.353639 3.999847 
0.191437 -0.462026 3.999864 
-0.191250 -0.462023 3.999951 
-0.353460 -0.353634 4.000010 
-0.461843 -0.191422 4.000067 
-0.461841 0.191258 4.000144 
-0.353456 0.353467 4.000152 
-0.191247 0.461852 4.000136 
0.000036 0.499959 0.199898 
-0.000023 0.500005 0.399912 
-0.000069 0.500041 0.599943 
-0.000090 0.500059 0.799975 
-0.000084 0.500055 1.000011 
-0.000046 0.500029 1.200036 
0.000006 0.499993 1.400046 
0.000057 0.499954 1.600040 
0.000091 0.499932 1.800018 
0.000098 0.499928 1.999993 
0.000077 0.499944 2.199974 
0.000039 0.499969 2.399965 
-0.000006 0.500000 2.599966 
-0.000056 0.500040 2.799969 
-0.000081 0.500054 2.999991 
-0.000078 0.500054 3.200021 
-0.000060 0.500037 3.400060 
-0.000015 0.500002 3.600085 
0.000040 0.499956 3.800095 
0.000040 -0.500042 0.200100 
-0.000021 -0.499994 0.400086 
-0.000068 -0.499959 0.600057 
-0.000089 -0.499944 0.800020 
-0.000084 -0.499945 0.999994 
-0.000049 -0.499971 1.199971 
0.000002 -0.500007 1.399961 
0.000052 -0.500044 1.599965 
0.000087 -0.500065 1.799982 
0.000092 -0.500067 1.999997 
0.000083 -0.500062 2.200024 
0.000043 -0.500034 2.400042 
-0.000006 -0.499994 2.600043 
-0.000054 -0.499962 2.800027 
-0.000083 -0.499946 3.000001 
-0.000090 -0.499941 3.199966 
-0.000059 -0.499961 3.399937 
-0.000014 -0.500001 3.599920 
0.000040 -0.500044 3.799907 
0.500047 -0.000029 0.200118 
0.499993 0.000023 0.400102 
0.499954 0.000061 0.600065 
0.499932 0.000078 0.800031 
0.499936 0.000071 0.999991 
0.499965 0.000038 1.199964 
0.500005 -0.000006 1.399952 
0.500054 -0.000050 1.599954 
0.500076 -0.000075 1.799980 
0.500084 -0.000081 2.000009 
0.500069 -0.000068 2.200033 
0.500037 -0.000035 2.400046 
0.499996 0.000008 2.600049 
0.499958 0.000048 2.800032 
0.499934 0.000074 3.000006 
0.499938 0.000070 3.199974 
0.499960 0.000051 3.399932 
0.499998 0.000013 3.599904 
0.500049 -0.000036 3.799889 
-0.499952 -0.000033 0.199886 
-0.500007 0.000019 0.399902 
-0.500047 0.000059 0.599935 
-0.500065 0.000078 0.799971 
-0.500065 0.000073 1.000006 
-0.500034 0.000040 1.200035 
-0.499993 -0.000003 1.400048 
-0.499950 -0.000047 1.600043 
-0.499926 -0.000075 1.800021 
-0.499914 -0.000084 1.999998 
-0.499931 -0.000071 2.199973 
-0.499959 -0.000035 2.399954 
-0.500006 0.000008 2.599956 
-0.500041 0.000046 2.799966 
-0.500059 0.000074 2.999999 
-0.500065 0.000075 3.200035 
-0.500043 0.000050 3.400062 
-0.500003 0.000015 3.600094 
-0.499950 -0.000036 3.800109 
0.354504 0.352591 0.677903 
0.354625 0.352486 0.208724 
0.353556 0.353551 1.385411 
0.353621 0.353492 1.658924 
0.353681 0.353417 0.913177 
0.353490 0.353609 1.116547 
0.353650 0.353466 1.916344 
0.353501 0.353602 2.800002 
0.353597 0.353516 2.393595 
0.353637 0.353482 2.158234 
0.353541 0.353566 2.624478 
0.353483 0.353618 2.938314 
0.340736 0.365919 3.350662 
0.353544 0.353562 3.624889 
0.457615 0.201536 3.806666 
0.201615 0.457526 3.806772 
0.473047 0.161963 3.648870 
0.161955 0.473039 3.648990 
0.468401 0.174958 0.318728 
0.177650 0.467369 0.318544 
0.191345 0.461934 1.393249 
0.461944 0.191338 1.393203 
0.188696 0.462989 2.034981 
0.463157 0.188513 2.034995 
0.477402 0.148620 2.587846 
0.148609 0.477402 2.587786 
0.150061 0.476984 3.007010 
0.476850 0.150228 3.007026 
0.186445 0.463953 3.472189 
0.463880 0.186537 3.472102 
0.191305 0.461966 1.249217 
0.461910 0.191373 1.249175 
0.191384 0.461903 1.539746 
0.461979 0.191306 1.539701 
0.452335 0.212973 3.229350 
0.164302 0.472269 3.252967 
0.193495 0.461060 0.545685 
0.461932 0.191298 0.546157 
0.178799 0.466972 0.783148 
0.467145 0.178142 0.783240 
0.176498 0.467844 1.022724 
0.467795 0.176432 1.022727 
0.176903 0.467619 1.776858 
0.467773 0.176732 1.776832 
0.465361 0.182925 2.396054 
0.183005 0.465289 2.396007 
0.191286 0.461984 2.799475 
0.461891 0.191391 2.799510 
0.357684 0.349372 0.457142 
0.353614 0.353500 3.866524 
0.328620 0.376840 3.144363 
0.413738 0.280711 3.079764 
0.446653 0.224790 2.236583 
0.224929 0.446529 2.236556 
0.091051 0.491583 1.901038 
0.491740 0.090871 1.901030 
0.090266 0.491832 0.901464 
0.491750 0.090157 0.901498 
0.489916 0.100213 3.901591 
0.100339 0.489778 3.901756 
0.421410 0.269113 2.502339 
0.269143 0.421377 2.502310 
0.463212 0.188351 0.121300 
0.189356 0.462727 0.121167 
0.353487 -0.353492 0.785463 
0.353504 -0.353513 0.585512 
0.342192 -0.364583 0.330453 
0.353614 -0.353607 1.672806 
0.353488 -0.353500 0.977774 
0.353564 -0.353566 1.424379 
0.353637 -0.353624 1.894634 
0.353510 -0.353515 2.799638 
0.353625 -0.353614 2.191942 
0.353594 -0.353586 2.420989 
0.353547 -0.353548 2.607558 
0.353490 -0.353499 2.989541 
0.353489 -0.353500 3.179461 
0.343889 -0.362979 3.645357 
0.351124 -0.355907 3.465958 
0.194455 -0.460706 3.810317 
0.169941 -0.470284 0.227167 
0.419966 -0.271492 3.845553 
0.428087 -0.258476 0.182406 
0.154793 -0.475452 3.657002 
0.469831 -0.171137 3.706205 
0.207710 -0.454775 3.472316 
0.450682 -0.216446 3.475057 
0.447632 -0.222905 1.583518 
0.222908 -0.447625 1.583523 
0.459793 -0.196358 1.242259 
0.196349 -0.459801 1.242263 
0.191264 -0.461887 0.793265 
0.461877 -0.191275 0.793270 
0.473006 -0.162136 1.450006 
0.162134 -0.473005 1.450013 
0.225903 -0.446167 2.060655 
0.446184 -0.225895 2.060653 
0.177918 -0.467189 3.048077 
0.467050 -0.178278 3.048084 
0.463398 -0.187817 2.533003 
0.187820 -0.463397 2.532998 
0.194239 -0.460720 0.406514 
0.451554 -0.214687 0.400107 
0.461746 -0.191658 0.595716 
0.191648 -0.461753 0.595721 
0.469460 -0.172228 2.370556 
0.172238 -0.469456 2.370554 
0.179170 -0.466718 1.000870 
0.466706 -0.179184 1.000869 
0.461794 -0.191514 3.268703 
0.189101 -0.462790 3.268675 
0.165224 -0.472006 1.797327 
0.472018 -0.165210 1.797324 
0.200495 -0.457987 2.784702 
0.457963 -0.200541 2.784701 
0.316485 -0.387190 0.152678 
0.316411 -0.387256 3.858642 
0.352157 -0.354851 3.330391 
0.353505 -0.353516 1.121849 
0.443977 -0.230145 2.248837 
0.230158 -0.443968 2.248836 
0.490754 -0.095417 1.105808 
0.095405 -0.490762 1.105814 
0.098429 -0.490296 3.902493 
0.486254 -0.116766 0.129345 
0.353637 -0.353624 2.041972 
0.353529 -0.353536 1.257684 
0.485445 -0.119913 0.263894 
0.490533 -0.096519 2.908210 
0.096406 -0.490556 2.908205 
0.091969 -0.491546 0.106882 
0.483033 -0.129459 3.871531 
-0.353636 -0.353478 0.701846 
-0.364570 -0.342178 0.327096 
-0.353614 -0.353498 0.568059 
-0.353570 -0.353540 1.333471 
-0.353480 -0.353618 1.697470 
-0.353644 -0.353472 0.870793 
-0.353461 -0.353634 1.881118 
-0.368981 -0.337423 2.632748 
-0.353524 -0.353579 2.450769 
-0.353460 -0.353637 2.067339 
-0.351057 -0.356038 2.941537 
-0.353639 -0.353477 3.179517 
-0.362969 -0.343877 3.645499 
-0.355977 -0.351119 3.466068 
-0.460610 -0.194444 3.810511 
-0.470203 -0.169948 0.226215 
-0.271388 -0.419952 3.845679 
-0.257470 -0.428626 0.181949 
-0.475428 -0.154787 3.657178 
-0.171109 -0.469824 3.706287 
-0.454837 -0.207708 3.472450 
-0.216521 -0.450675 3.475136 
-0.222095 -0.447987 1.609049 
-0.447886 -0.222200 1.609084 
-0.208546 -0.454408 1.014613 
-0.454541 -0.208389 1.014625 
-0.453282 -0.210942 2.174304 
-0.210780 -0.453431 2.174324 
-0.466149 -0.180958 0.809566 
-0.181139 -0.466005 0.809596 
-0.194841 -0.460485 1.443216 
-0.460455 -0.194866 1.443265 
-0.197274 -0.459474 2.021550 
-0.459305 -0.197458 2.021548 
-0.184030 -0.464897 2.603457 
-0.467847 -0.176417 2.594207 
-0.197275 -0.459409 3.076365 
-0.467132 -0.178398 3.041405 
-0.460737 -0.194231 0.405263 
-0.211413 -0.453102 0.396639 
-0.467551 -0.177268 0.596830 
-0.177403 -0.467448 0.596899 
-0.181172 -0.466010 1.229929 
-0.466074 -0.181089 1.229969 
-0.191650 -0.461786 3.268763 
-0.462901 -0.189099 3.268780 
-0.471553 -0.166101 1.792611 
-0.165932 -0.471701 1.792588 
-0.177462 -0.467420 2.857658 
-0.441870 -0.234034 2.804909 
-0.386992 -0.316579 0.151555 
-0.387141 -0.316397 3.858813 
-0.354961 -0.352147 3.330475 
-0.353480 -0.353619 2.245868 
-0.353618 -0.353496 1.117346 
-0.490067 -0.099368 1.111159 
-0.099493 -0.489970 1.111126 
-0.491689 -0.091046 0.701573 
-0.091206 -0.491570 0.701646 
-0.165803 -0.471731 2.380766 
-0.471646 -0.165893 2.380713 
-0.490156 -0.098418 3.902703 
-0.116266 -0.486336 0.129005 
-0.118963 -0.485661 0.262814 
-0.353520 -0.353585 1.522593 
-0.316874 -0.386765 2.768061 
-0.488752 -0.105658 2.911568 
-0.491409 -0.091961 0.106475 
-0.129346 -0.483021 3.871601 
-0.353617 0.353604 0.703639 
-0.353596 0.353585 0.564891 
-0.342168 0.364560 0.326371 
-0.353529 0.353533 1.465111 
-0.353489 0.353498 1.675957 
-0.353623 0.353613 0.911495 
-0.353576 0.353571 1.258085 
-0.353599 0.353589 2.799960 
-0.353469 0.353482 1.920264 
-0.353514 0.353520 2.393544 
-0.353479 0.353490 2.159351 
-0.353564 0.353562 2.624418 
-0.353618 0.353604 2.989581 
-0.353615 0.353613 3.179546 
-0.343876 0.362959 3.645616 
-0.351189 0.355957 3.466156 
-0.194361 0.460610 3.810577 
-0.169891 0.470202 0.226100 
-0.419844 0.271389 3.845848 
-0.428528 0.257479 0.181567 
-0.154786 0.475425 3.657225 
-0.469781 0.171105 3.706462 
-0.207786 0.454820 3.472502 
-0.450731 0.216499 3.475250 
-0.445560 0.227056 1.001616 
-0.227067 0.445553 1.001625 
-0.183700 0.465118 0.814179 
-0.465127 0.183687 0.814182 
-0.188509 0.463000 2.036569 
-0.462986 0.188522 2.036576 
-0.477405 0.148618 2.587761 
[...]
POINT_DATA 630
SCALARS u float 1
LOOKUP_TABLE default
0.008682
0.009358
0.008817
0.009376
0.008598
0.009175
0.008485
0.009088
0.006966
0.006413
0.007511
0.010677
0.011050
0.010366
0.007126
0.006581
0.007632
0.010537
0.010800
0.010214
0.007072
0.006618
0.007553
0.010323
0.010615
0.009903
0.007033
0.006569
0.007530
0.010227
0.010575
0.009916
0.006110
0.004805
0.005197
0.005850
0.005325
0.003449
0.002490
0.004414
0.006077
0.006442
0.005229
0.003236
0.001841
0.004010
0.005159
0.005137
0.004889
0.004585
0.005947
0.006076
0.004694
0.005175
0.005656
0.005315
0.003354
0.002093
0.004047
0.005819
0.006011
0.005638
0.003635
0.002328
0.003756
0.005226
0.005961
0.004976
0.004295
0.005841
0.006883
0.005511
0.005311
0.005679
0.005048
0.003330
0.002576
0.004557
0.005739
0.006171
0.005416
0.003605
0.002619
0.003791
0.005218
0.005137
0.004946
0.005096
0.006662
0.006754
0.005269
0.005259
0.005586
0.005155
0.003348
0.002544
0.004275
0.005681
0.006355
0.005405
0.003753
0.002400
0.003717
0.004994
0.005578
0.004798
0.005020
0.006603
0.005645
0.002389
0.000364
0.004826
0.006234
0.004469
0.006881
0.003786
0.003050
0.005828
0.001000
0.005027
0.004961
0.000844
0.004587
0.003881
0.003645
0.002748
0.003673
0.002697
0.001080
0.001409
0.006624
0.006607
0.001875
0.001354
0.005757
0.005578
0.003716
0.004034
0.002541
0.002622
0.003080
0.003144
0.005760
0.005575
0.004413
0.004703
0.006214
0.005996
0.005530
0.005317
0.006263
0.006005
0.003171
0.003060
0.003851
0.003804
0.002729
0.004298
0.006233
0.005915
0.004923
0.005072
0.006517
0.006157
0.005882
0.005548
0.006946
0.006273
0.001545
0.001298
0.005670
0.004996
0.005355
0.006031
0.007358
0.004840
0.004484
0.003461
0.005829
0.003814
0.005246
0.004357
0.003292
0.004413
0.004903
0.006842
0.005804
0.007738
0.007513
0.008858
0.008767
0.005826
0.007110
0.005197
0.005856
0.004380
0.004080
0.003411
0.003309
0.005305
0.005281
0.003385
0.003022
0.005705
0.005954
0.005092
0.004760
0.003390
0.003146
0.006113
0.006570
0.005268
0.005584
0.004252
0.004362
0.004831
0.004645
0.004857
0.005288
0.005753
0.005698
0.003907
0.003850
0.009134
0.008922
0.005202
0.003721
0.004974
0.005119
0.004031
0.004147
0.008072
0.008691
0.005791
0.003271
0.007258
0.004298
0.004582
0.008174
0.008535
0.005899
0.000812
0.004341
0.001135
0.005171
0.006446
0.006483
0.001203
0.002067
0.006616
0.005476
0.006061
0.000705
0.003217
0.004633
0.004455
0.003934
0.003383
0.003571
0.002878
0.003895
0.003438
0.003905
0.004027
0.005525
0.005396
0.005773
0.005891
0.006139
0.006205
0.001466
0.001881
0.006625
0.006603
0.001368
0.001735
0.006117
0.005845
0.003334
0.002285
0.004896
0.004849
0.002932
0.003040
0.005527
0.005358
0.005980
0.005983
0.004556
0.003824
0.003956
0.004256
0.005086
0.005197
0.004554
0.004247
0.004332
0.005526
0.005689
0.003543
0.003595
0.006953
0.005705
0.003843
0.002452
0.003424
0.004682
0.006991
0.005541
0.005476
0.005843
0.007246
0.003812
0.005168
0.004881
0.003265
0.003699
0.005895
0.004003
0.005441
0.003034
0.004366
0.004855
0.006864
0.005540
0.007758
0.007427
0.008846
0.008762
0.006051
0.006844
0.005621
0.004900
0.004407
0.004691
0.005353
0.005081
0.005955
0.005874
0.002852
0.002498
0.004675
0.004987
0.006232
0.006678
0.005547
0.005569
0.003712
0.003847
0.005259
0.004978
0.003327
0.003222
0.004257
0.004284
0.006045
0.005956
0.004070
0.003529
0.004039
0.003848
0.008951
0.008926
0.005532
0.004170
0.004989
0.004868
0.005616
0.005392
0.005935
0.006116
0.008091
0.008602
0.003259
0.003096
0.007140
0.008122
0.008433
0.006761
0.007783
0.008125
0.008018
0.007712
0.006774
0.007618
0.007970
0.006698
0.006933
0.009229
0.008699
0.006815
0.009171
0.006710
0.006893
0.009379
0.006864
0.007024
0.006918
0.007141
0.006859
0.007835
0.008203
0.008211
0.007940
0.006770
0.007805
0.008214
0.006820
0.006842
0.009459
0.008890
0.006723
0.009523
0.006780
0.006972
0.009666
0.007019
0.007152
0.007059
0.007183
0.004358
0.006046
0.005625
0.005762
0.006082
0.005629
0.005565
0.003677
0.002185
0.003923
0.003928
0.001446
0.002297
0.002401
0.004496
0.005299
0.005569
0.004372
0.003960
0.003097
0.005703
0.004408
0.006184
0.005966
0.006740
0.005979
0.006139
0.005986
0.004505
0.005314
0.003051
0.004750
0.003519
0.003619
0.003031
0.004543
0.003219
0.001887
0.004697
0.006043
0.006288
0.005154
0.005874
0.005737
0.005822
0.000618
0.005864
0.002380
0.002302
0.002217
0.001636
0.004312
0.002333
0.002272
0.002289
0.004518
0.004098
0.004340
0.004082
0.003317
0.003988
0.003891
0.005646
0.001731
0.005302
0.005157
0.005199
0.003491
0.005413
0.005387
0.003575
0.004638
0.003111
0.002566
0.003628
0.005644
0.004644
0.004508
0.004419
0.005388
0.004871
0.004854
0.001928
0.005377
0.004989
0.005086
0.005839
0.004999
0.003450
0.003469
0.003382
0.003269
0.006479
0.005696
0.005957
0.002551
0.006200
0.003121
0.000542
0.003683
0.003110
0.001614
0.000433
0.002394
0.000877
0.004358
0.006046
0.005625
0.005762
0.006082
0.005629
0.005565
0.003677
0.002185
0.003923
0.003928
0.001446
0.002297
0.002401
0.004496
0.005299
0.005569
0.004372
0.003960
0.003097
0.005703
0.004408
0.006184
0.005966
0.006740
0.005979
0.006139
0.005986
0.004505
0.005314
0.003051
0.004750
0.003519
0.003619
0.003031
0.004543
0.003219
0.001887
0.004697
0.006043
0.006288
0.005154
0.005874
0.005737
0.005822
0.000618
0.005864
0.002380
0.002302
0.002217
0.001636
0.004312
0.002333
0.002272
0.002289
0.004518
0.004098
0.004340
0.004082
0.003317
0.003988
0.003891
0.005646
0.001731
0.005302
0.005157
0.005199
0.003491
0.005413
0.005387
0.003575
0.004638
0.003111
0.002566
0.003628
0.005644
0.004644
0.004508
0.004419
0.005388
0.004871
0.004854
0.001928
0.005377
0.004989
0.005086
0.005839
0.004999
0.003450
0.003469
0.003382
0.003269
0.006479
0.005696
0.005957
0.002551
0.006200
0.003121
0.000542
0.003683
0.003110
0.001614
0.000433
0.002394
0.000877
