# vtk DataFile Version 2.0
Unstructured Grid Example
ASCII
DATASET UNSTRUCTURED_GRID
POINTS 507 float
0.000334 0.500281 0.028545 
0.500539 0.000142 0.028757 
0.000375 -0.500039 0.028374 
-0.499842 0.000133 0.028254 
-0.000231 0.499872 3.971858 
0.499866 -0.000180 3.971851 
-0.000288 -0.500316 3.971368 
-0.500460 -0.000213 3.971234 
0.191721 0.462131 0.028583 
0.354008 0.353761 0.028684 
0.462372 0.191501 0.028706 
0.462380 -0.191264 0.028632 
0.353999 -0.353562 0.028584 
0.191729 -0.461901 0.028475 
-0.191012 -0.461938 0.028243 
-0.353317 -0.353467 0.028130 
-0.461757 -0.191228 0.028199 
-0.461749 0.191490 0.028229 
-0.353280 0.353787 0.028257 
-0.191037 0.462204 0.028439 
0.191145 0.461789 3.971901 
0.353339 0.353365 3.971962 
0.461773 0.191169 3.971942 
0.461778 -0.191581 3.971786 
0.353319 -0.353792 3.971712 
0.191086 -0.462232 3.971517 
-0.191676 -0.462240 3.971262 
-0.353985 -0.353783 3.971257 
-0.462407 -0.191546 3.971156 
-0.462353 0.191149 3.971385 
-0.353880 0.353415 3.971600 
-0.191630 0.461826 3.971761 
0.000218 0.500615 0.228196 
0.000103 0.501123 0.427191 
-0.000084 0.501598 0.625370 
-0.000128 0.502012 0.822987 
-0.000224 0.502369 1.020141 
-0.000229 0.502696 1.216736 
-0.000249 0.502978 1.412913 
-0.000200 0.503176 1.608737 
-0.000137 0.503316 1.804335 
-0.000047 0.503405 1.999983 
0.000067 0.503433 2.195495 
0.000172 0.503294 2.391200 
0.000216 0.503060 2.587139 
0.000207 0.502942 2.783231 
0.000139 0.502619 2.979964 
0.000208 0.502209 3.177130 
0.000085 0.501498 3.374872 
-0.000035 0.501143 3.573171 
-0.000132 0.500485 3.772190 
0.000225 -0.500471 0.228005 
0.000097 -0.501081 0.427008 
-0.000052 -0.501564 0.625332 
-0.000194 -0.502054 0.822918 
-0.000211 -0.502498 1.020048 
-0.000277 -0.502866 1.216659 
-0.000234 -0.503207 1.412935 
-0.000196 -0.503379 1.608784 
-0.000122 -0.503474 1.804467 
-0.000013 -0.503506 2.000066 
0.000074 -0.503390 2.195620 
0.000170 -0.503197 2.391283 
0.000218 -0.502917 2.587149 
0.000231 -0.502700 2.783265 
0.000226 -0.502373 2.979896 
0.000157 -0.501944 3.176996 
0.000038 -0.501504 3.374547 
-0.000018 -0.501105 3.572806 
-0.000156 -0.500673 3.771693 
0.500800 0.000085 0.228380 
0.501184 0.000078 0.427396 
0.501657 0.000015 0.625627 
0.501840 -0.000008 0.823072 
0.502312 -0.000081 1.020156 
0.502609 -0.000067 1.216794 
0.502867 -0.000140 1.412994 
0.503045 -0.000109 1.608670 
0.503256 -0.000078 1.804278 
0.503451 -0.000037 1.999882 
0.503494 0.000012 2.195427 
0.503373 0.000080 2.391186 
0.503174 0.000109 2.587137 
0.503016 0.000088 2.783262 
0.502655 0.000104 2.980112 
0.502081 0.000140 3.177224 
0.501584 0.000101 3.374700 
0.501124 -0.000027 3.573103 
0.500461 -0.000125 3.772186 
-0.500344 0.000110 0.227896 
-0.501024 0.000060 0.426865 
-0.501554 0.000027 0.625147 
-0.502090 -0.000055 0.822799 
-0.502624 -0.000079 1.020009 
-0.503023 -0.000126 1.216709 
-0.503296 -0.000142 1.412961 
-0.503433 -0.000124 1.608815 
-0.503480 -0.000078 1.804494 
-0.503504 -0.000046 2.000126 
-0.503352 -0.000004 2.195678 
-0.503130 0.000032 2.391326 
-0.502848 0.000094 2.587194 
-0.502660 0.000095 2.783365 
-0.502315 0.000179 2.979845 
-0.501874 0.000113 3.176906 
-0.501384 0.000099 3.374450 
-0.501218 0.000040 3.572586 
-0.500818 -0.000104 3.771547 
0.353693 -0.355799 0.705446 
0.353148 -0.354898 0.236953 
0.355521 -0.355876 1.489031 
0.354677 -0.355433 0.954619 
0.355749 -0.356017 1.686287 
0.355391 -0.355739 1.227664 
0.355925 -0.356049 1.922719 
0.355672 -0.355367 2.783393 
0.356039 -0.355796 2.384923 
0.355851 -0.355509 2.611160 
0.356021 -0.355965 2.155983 
0.355588 -0.355301 2.919223 
0.367147 -0.341847 3.325952 
0.354278 -0.354301 3.597684 
0.201669 -0.458214 3.778541 
0.457948 -0.201902 3.778825 
0.162179 -0.473931 3.621509 
0.473970 -0.162312 3.621796 
0.175421 -0.469212 0.346258 
0.468377 -0.177871 0.346379 
0.192197 -0.464693 1.219381 
0.464341 -0.192537 1.219407 
0.189895 -0.466296 2.036126 
0.466260 -0.189929 2.036023 
0.149746 -0.480176 2.575202 
0.480487 -0.149403 2.575157 
0.479459 -0.150788 2.986943 
0.151112 -0.479161 2.986795 
0.465250 -0.186946 3.446146 
0.187030 -0.465176 3.446034 
0.213892 -0.454084 3.206049 
0.474040 -0.164895 3.229401 
0.462499 -0.194158 0.571735 
0.191851 -0.463375 0.572072 
0.474170 -0.164201 0.822346 
0.163166 -0.474708 0.822058 
0.465909 -0.187847 1.076959 
0.187277 -0.466330 1.076846 
0.192260 -0.464864 1.362516 
0.464532 -0.192613 1.362531 
0.464717 -0.192724 1.560315 
0.192367 -0.465006 1.560318 
0.177889 -0.470962 1.787261 
0.470741 -0.178088 1.787184 
0.184329 -0.468292 2.387370 
0.468521 -0.184064 2.387295 
0.192599 -0.464369 2.782815 
0.464721 -0.192299 2.782826 
0.350307 -0.358624 0.483925 
0.353672 -0.353994 3.838324 
0.378522 -0.330024 3.122218 
0.282089 -0.415637 3.058534 
0.226472 -0.449586 2.231975 
0.449696 -0.226359 2.231916 
0.091516 -0.495080 1.904986 
0.494960 -0.091631 1.904879 
0.100142 -0.490364 3.873200 
0.490012 -0.100504 3.873620 
0.271012 -0.423929 2.491460 
0.424226 -0.270709 2.491391 
0.188839 -0.463378 0.149644 
0.463431 -0.189352 0.149771 
-0.355002 -0.354894 0.793723 
-0.365083 -0.342752 0.357833 
-0.354676 -0.354636 0.614377 
-0.356071 -0.356008 1.687105 
-0.355979 -0.355893 1.499567 
-0.355796 -0.355655 1.249114 
-0.355463 -0.355319 1.019908 
-0.356045 -0.356044 1.900363 
-0.355368 -0.355478 2.783378 
-0.355508 -0.355611 2.597367 
-0.355673 -0.355772 2.441356 
-0.355966 -0.356007 2.070115 
-0.355125 -0.355218 2.969580 
-0.354773 -0.354781 3.240948 
-0.365361 -0.342890 3.641148 
-0.354541 -0.354583 3.392018 
-0.471052 -0.170249 3.744052 
-0.470627 -0.170061 0.254718 
-0.253108 -0.432085 3.782302 
-0.258268 -0.428501 0.210363 
-0.209015 -0.457951 2.169517 
-0.457899 -0.209083 2.169539 
-0.149461 -0.479319 0.832588 
-0.479392 -0.149309 0.832554 
-0.166601 -0.475146 1.988821 
-0.475147 -0.166624 1.988857 
-0.177284 -0.470556 2.581663 
-0.470474 -0.177402 2.581700 
-0.464065 -0.192177 2.976232 
-0.192085 -0.464138 2.976234 
-0.461666 -0.194631 0.432015 
-0.214097 -0.452981 0.427455 
-0.461858 -0.194716 3.563641 
-0.184247 -0.466092 3.542412 
-0.463225 -0.192299 0.621120 
-0.192350 -0.463208 0.621198 
-0.464165 -0.189920 3.314738 
-0.188186 -0.464965 3.311120 
-0.191379 -0.464137 3.108968 
-0.463954 -0.191719 3.109544 
-0.467754 -0.183931 1.021028 
-0.184081 -0.467633 1.021108 
-0.458292 -0.207940 1.343500 
-0.208063 -0.458188 1.343502 
-0.465112 -0.192729 1.560623 
-0.192811 -0.465037 1.560618 
-0.188448 -0.466897 1.758413 
-0.466926 -0.188402 1.758422 
-0.464444 -0.192354 2.783292 
-0.192223 -0.464533 2.783257 
-0.387768 -0.316849 3.818533 
-0.387170 -0.316711 0.180490 
-0.355857 -0.355935 2.241179 
-0.474835 -0.166418 2.372508 
-0.166298 -0.474909 2.372491 
-0.270492 -0.423242 0.915153 
-0.423358 -0.270360 0.915117 
-0.114050 -0.487420 3.839290 
-0.116431 -0.486507 0.157440 
-0.447433 -0.229655 1.170105 
-0.229796 -0.447260 1.170136 
-0.111888 -0.488185 3.700440 
-0.119606 -0.486161 0.291606 
-0.492139 -0.092106 3.864397 
-0.491603 -0.091851 0.134843 
-0.354898 0.354787 0.727890 
-0.354587 0.354606 0.590604 
-0.342665 0.365279 0.353890 
-0.356002 0.355650 1.476677 
-0.356076 0.355796 1.683103 
-0.355334 0.355104 0.932999 
-0.355851 0.355473 1.273671 
-0.355380 0.355684 2.783207 
-0.356050 0.355923 1.922059 
-0.355941 0.355967 2.155947 
-0.355435 0.355760 2.610626 
-0.355707 0.355899 2.385895 
-0.354913 0.355176 3.146111 
-0.355125 0.355511 2.967746 
-0.344596 0.363692 3.618485 
-0.352112 0.357040 3.441726 
-0.194759 0.461129 3.782568 
-0.169953 0.470916 0.254274 
-0.420485 0.271572 3.817487 
-0.428793 0.257898 0.209685 
-0.155155 0.476301 3.630078 
-0.470793 0.171100 3.678148 
-0.208247 0.456088 3.446297 
-0.452710 0.215623 3.446636 
-0.447879 0.228000 1.021629 
-0.228317 0.447602 1.021740 
-0.184539 0.466931 0.837051 
-0.467070 0.184334 0.836912 
-0.466293 0.189870 2.035853 
-0.189913 0.466212 2.035783 
-0.480116 0.149605 2.575038 
-0.149285 0.480351 2.575007 
-0.461752 0.197523 3.052731 
-0.196907 0.462222 3.052671 
-0.194587 0.461748 0.432655 
-0.453965 0.211976 0.423055 
-0.468848 0.178215 0.622731 
-0.178270 0.468853 0.622885 
-0.462132 0.198296 1.171508 
-0.198665 0.461786 1.171557 
-0.468204 0.184164 2.387524 
-0.183988 0.468437 2.387405 
-0.464975 0.192371 1.359389 
-0.192734 0.464591 1.359359 
-0.465088 0.192439 1.557423 
-0.192785 0.464796 1.557410 
-0.178153 0.470784 1.786159 
-0.470986 0.177912 1.786247 
-0.455218 0.213066 2.821599 
-0.212732 0.455605 2.821502 
-0.463662 0.191860 3.242583 
-0.189690 0.464650 3.242592 
-0.316573 0.387524 0.179566 
-0.316795 0.387430 3.830674 
-0.353221 0.356173 3.304600 
-0.355627 0.355269 1.098965 
-0.092325 0.493217 0.727158 
-0.493251 0.092197 0.726977 
-0.449520 0.226374 2.232172 
-0.226319 0.449637 2.232082 
-0.423858 0.270887 2.491371 
-0.270597 0.424109 2.491333 
-0.495105 0.091509 1.904722 
-0.091658 0.494960 1.904590 
-0.098621 0.490433 3.874548 
-0.486429 0.116539 0.156973 
-0.486202 0.119280 0.290264 
-0.091697 0.491965 0.134949 
-0.483615 0.129307 3.843082 
0.355706 0.353746 0.702674 
0.355232 0.353010 0.237043 
0.355499 0.355672 1.398677 
0.355181 0.354874 0.934707 
0.355254 0.355362 1.134833 
0.355688 0.355793 1.666351 
0.355919 0.355936 1.918055 
0.355728 0.355651 2.783327 
0.355993 0.355893 2.384856 
0.355812 0.355710 2.611133 
0.356046 0.356008 2.154513 
0.355584 0.355522 2.919316 
0.341942 0.367148 3.326061 
0.354311 0.354302 3.597846 
0.457947 0.201675 3.778935 
0.201654 0.457955 3.778919 
0.473977 0.162237 3.621884 
0.162218 0.473976 3.621870 
0.469425 0.175332 0.346506 
0.178126 0.468282 0.346321 
0.192264 0.464690 1.406257 
0.464564 0.192436 1.406331 
0.189864 0.466231 2.034095 
0.466282 0.189883 2.034069 
0.480413 0.149612 2.575166 
0.149722 0.480325 2.575162 
0.151005 0.479392 2.986858 
0.479451 0.150994 2.986936 
0.186986 0.465161 3.446343 
0.465217 0.187099 3.446263 
0.464411 0.192357 1.265117 
0.192196 0.464491 1.265033 
0.192353 0.464840 1.549741 
0.464657 0.192497 1.549707 
0.454169 0.213844 3.206249 
0.165153 0.474102 3.229448 
[...]
POINT_DATA 507
SCALARS u float 1
LOOKUP_TABLE default
0.009236
0.009306
0.009181
0.009142
0.009106
0.009108
0.009265
0.009308
0.009249
0.009282
0.009289
0.009265
0.009249
0.009214
0.009139
0.009101
0.009124
0.009134
0.009143
0.009202
0.009092
0.009072
0.009078
0.009129
0.009153
0.009216
0.009299
0.009301
0.009334
0.009259
0.009189
0.009137
0.009125
0.008805
0.008224
0.007466
0.006562
0.005485
0.004288
0.003008
0.001766
0.001102
0.001833
0.003040
0.004278
0.005509
0.006538
0.007434
0.008144
0.008688
0.008999
0.009062
0.008745
0.008212
0.007445
0.006537
0.005470
0.004312
0.003046
0.001831
0.001135
0.001792
0.003005
0.004264
0.005485
0.006550
0.007469
0.008250
0.008806
0.009161
0.009186
0.008872
0.008309
0.007489
0.006564
0.005499
0.004306
0.002973
0.001740
0.001117
0.001862
0.003053
0.004287
0.005503
0.006492
0.007400
0.008202
0.008710
0.009000
0.009026
0.008698
0.008152
0.007407
0.006529
0.005494
0.004327
0.003061
0.001839
0.001135
0.001769
0.002984
0.004245
0.005450
0.006564
0.007497
0.008279
0.008878
0.009209
0.007996
0.009139
0.003772
0.006855
0.002515
0.005435
0.001241
0.005448
0.003009
0.004417
0.001619
0.006237
0.008014
0.008812
0.009122
0.009030
0.008879
0.008788
0.008935
0.008996
0.005452
0.005450
0.001156
0.001158
0.004194
0.004223
0.006550
0.006590
0.008426
0.008462
0.007571
0.007644
0.008433
0.008414
0.007558
0.007451
0.006262
0.006230
0.004607
0.004600
0.003318
0.003332
0.001911
0.001864
0.003005
0.003040
0.005467
0.005475
0.008679
0.009129
0.007200
0.006910
0.002029
0.002054
0.001320
0.001275
0.009217
0.009080
0.003662
0.003691
0.009195
0.009241
0.007523
0.008810
0.008197
0.002591
0.003766
0.005290
0.006528
0.001382
0.005446
0.004321
0.003313
0.001213
0.006514
0.007780
0.009020
0.008344
0.009191
0.008994
0.009219
0.009031
0.001629
0.001620
0.007381
0.007370
0.001141
0.001145
0.004219
0.004204
0.006552
0.006553
0.008643
0.008688
0.008860
0.008762
0.008171
0.008197
0.008034
0.008046
0.007202
0.007208
0.006520
0.006544
0.004750
0.004748
0.003389
0.003384
0.002128
0.002132
0.005476
0.005489
0.009252
0.009045
0.002017
0.002853
0.002862
0.007008
0.006997
0.009243
0.009113
0.005731
0.005736
0.009071
0.008957
0.009293
0.009095
0.007847
0.008301
0.008864
0.003905
0.002572
0.006996
0.005152
0.005508
0.001259
0.001579
0.004441
0.002966
0.007357
0.006526
0.008855
0.008420
0.009057
0.009076
0.009168
0.009050
0.008823
0.009020
0.008428
0.008478
0.006531
0.006562
0.007422
0.007378
0.001146
0.001132
0.004188
0.004208
0.006904
0.006925
0.008738
0.008719
0.008167
0.008217
0.005742
0.005749
0.002967
0.003021
0.004652
0.004628
0.003379
0.003362
0.001902
0.001945
0.005712
0.005753
0.007748
0.007721
0.009101
0.009133
0.007994
0.006157
0.007858
0.007800
0.001982
0.002021
0.003651
0.003667
0.001347
0.001292
0.009089
0.009095
0.008953
0.009187
0.009238
0.008034
0.009170
0.004390
0.006998
0.005969
0.002603
0.001219
0.005482
0.003030
0.004433
0.001652
0.006214
0.007980
0.008759
0.008993
0.008998
0.008759
0.008764
0.009016
0.008977
0.004318
0.004337
0.001140
0.001159
0.004218
0.004216
0.006577
0.006554
0.008362
0.008389
0.005222
0.005196
0.003389
0.003367
0.007507
0.007633
0.008498
0.008450
0.007575
0.007576
0.006450
0.006451
0.001891
0.001866
0.003051
0.003038
0.005490
0.005490
0.008726
0.009051
0.007172
0.006876
0.002095
0.002077
0.001282
0.001272
0.007027
0.007034
0.009066
0.009053
0.003690
0.003687
0.009269
0.009225
0.009465
0.009384
0.009379
0.009402
0.009356
0.009303
0.009457
0.009377
0.009357
0.009363
0.009406
0.009264
0.009283
0.009354
0.009289
0.009401
0.009256
0.009443
0.009423
0.009448
0.009428
0.009366
0.009254
0.009227
0.009381
0.009446
0.009437
0.009342
0.009396
0.009310
0.009416
0.009319
0.009382
0.009355
0.009380
0.009272
0.009396
0.009271
0.009320
0.009407
0.009329
0.009255
0.009443
0.009426
0.009437
0.009383
0.009275
0.009336
0.009376
0.009258
0.007536
0.005777
0.009325
0.009273
0.009322
0.009038
0.009273
0.009191
0.009221
0.008951
0.009213
0.008905
0.009260
0.008996
0.009222
0.008920
0.008911
0.007652
0.005930
0.003766
0.001416
0.001266
0.003626
0.007851
0.007094
0.003024
0.003042
0.004176
0.005260
0.005256
0.006229
0.007877
0.008465
0.008490
0.007840
0.007110
0.008436
0.001876
0.001874
0.000818
0.001853
0.001798
0.001797
0.006241
0.008003
0.009294
0.009342
0.009356
0.009031
0.008888
0.001005
0.000901
0.005276
0.003082
0.007239
0.007226
0.007993
0.007276
0.008017
0.007988
0.002023
0.002028
0.007078
0.006213
0.009022
0.009085
0.008590
0.005251
0.009295
0.009322
0.009337
0.009328
0.001809
0.001806
0.007142
0.007196
0.003274
0.007335
0.006280
0.001868
0.001863
0.000799
0.003042
0.000948
0.003201
0.003227
0.003236
0.004370
0.002059
