# vtk DataFile Version 2.0
Unstructured Grid Example
ASCII
DATASET UNSTRUCTURED_GRID
POINTS 630 float
-0.000001 0.500003 0.000649 
0.500002 -0.000001 0.000648 
-0.000002 -0.500005 0.000652 
-0.500006 0.000000 0.000654 
0.000002 0.500005 3.999348 
0.500004 0.000002 3.999347 
0.000002 -0.499999 3.999353 
-0.500001 0.000003 3.999351 
0.191342 0.461941 0.000647 
0.353555 0.353555 0.000648 
0.461941 0.191342 0.000647 
0.461941 -0.191343 0.000650 
0.353554 -0.353557 0.000650 
0.191341 -0.461944 0.000651 
-0.191345 -0.461944 0.000651 
-0.353559 -0.353556 0.000652 
-0.461946 -0.191343 0.000652 
-0.461945 0.191342 0.000651 
-0.353556 0.353556 0.000650 
-0.191344 0.461943 0.000651 
0.191343 0.461944 3.999350 
0.353556 0.353556 3.999351 
0.461944 0.191345 3.999349 
0.461944 -0.191339 3.999349 
0.353556 -0.353553 3.999351 
0.191344 -0.461939 3.999352 
-0.191340 -0.461938 3.999355 
-0.353553 -0.353552 3.999354 
-0.461941 -0.191339 3.999353 
-0.461940 0.191345 3.999351 
-0.353552 0.353558 3.999350 
-0.191340 0.461945 3.999350 
-0.000000 0.500012 0.200641 
0.000001 0.500025 0.400618 
-0.000000 0.500036 0.600577 
0.000001 0.500048 0.800524 
0.000001 0.500056 1.000459 
0.000002 0.500065 1.200381 
0.000001 0.500071 1.400294 
0.000001 0.500075 1.600200 
0.000000 0.500078 1.800100 
-0.000000 0.500078 2.000001 
-0.000001 0.500077 2.199899 
-0.000001 0.500073 2.399801 
-0.000002 0.500066 2.599707 
-0.000002 0.500064 2.799617 
-0.000002 0.500055 2.999542 
0.000001 0.500048 3.199476 
0.000000 0.500033 3.399422 
0.000001 0.500026 3.599380 
0.000001 0.500017 3.799356 
-0.000001 -0.500013 0.200643 
-0.000001 -0.500024 0.400621 
-0.000000 -0.500035 0.600579 
0.000001 -0.500047 0.800525 
0.000001 -0.500055 1.000459 
0.000001 -0.500063 1.200382 
0.000001 -0.500070 1.400296 
0.000001 -0.500075 1.600201 
0.000000 -0.500078 1.800101 
-0.000000 -0.500079 1.999999 
-0.000001 -0.500078 2.199897 
-0.000001 -0.500075 2.399800 
-0.000001 -0.500073 2.599705 
-0.000001 -0.500065 2.799619 
-0.000001 -0.500055 2.999543 
0.000000 -0.500046 3.199476 
-0.000000 -0.500037 3.399421 
-0.000000 -0.500026 3.599384 
0.000001 -0.500011 3.799362 
0.500011 -0.000001 0.200641 
0.500024 0.000000 0.400618 
0.500037 0.000000 0.600576 
0.500046 0.000001 0.800524 
0.500057 0.000000 1.000458 
0.500065 0.000001 1.200382 
0.500072 0.000000 1.400295 
0.500075 0.000000 1.600201 
0.500077 0.000001 1.800101 
0.500079 0.000000 2.000001 
0.500077 -0.000001 2.199898 
0.500073 -0.000001 2.399799 
0.500069 -0.000001 2.599704 
0.500063 -0.000001 2.799618 
0.500054 -0.000002 2.999542 
0.500046 -0.000000 3.199477 
0.500034 -0.000001 3.399423 
0.500028 0.000001 3.599382 
0.500016 0.000002 3.799355 
-0.500014 0.000000 0.200644 
-0.500024 0.000001 0.400622 
-0.500035 0.000001 0.600579 
-0.500046 0.000001 0.800525 
-0.500054 0.000001 1.000461 
-0.500062 0.000001 1.200382 
-0.500070 0.000001 1.400295 
-0.500074 0.000000 1.600200 
-0.500077 0.000000 1.800100 
-0.500079 -0.000001 1.999999 
-0.500078 -0.000001 2.199897 
-0.500075 -0.000002 2.399799 
-0.500073 -0.000001 2.599705 
-0.500066 -0.000001 2.799620 
-0.500055 -0.000003 2.999544 
-0.500045 -0.000002 3.199476 
-0.500037 -0.000001 3.399422 
-0.500025 0.000000 3.599383 
-0.500013 0.000002 3.799359 
0.354612 0.352549 0.678458 
0.354600 0.352522 0.209353 
0.353604 0.353605 1.385719 
0.353607 0.353606 1.659097 
0.353806 0.353375 0.913665 
0.353598 0.353597 1.116968 
0.353609 0.353609 1.916384 
0.353597 0.353597 2.799619 
0.353605 0.353605 2.393394 
0.353608 0.353609 2.158152 
0.353601 0.353600 2.624167 
0.353594 0.353594 2.937876 
0.340832 0.365883 3.350093 
0.353571 0.353571 3.624275 
0.457582 0.201580 3.806084 
0.201580 0.457582 3.806084 
0.473063 0.161968 3.648313 
0.161967 0.473063 3.648312 
0.468411 0.174961 0.319288 
0.177660 0.467394 0.319222 
0.191369 0.462005 1.393526 
0.462007 0.191369 1.393527 
0.188627 0.463139 2.034968 
0.463140 0.188628 2.034968 
0.477470 0.148633 2.587521 
0.148633 0.477467 2.587524 
0.150165 0.476974 3.006555 
0.476974 0.150165 3.006556 
0.186507 0.463948 3.471555 
0.463948 0.186507 3.471556 
0.191368 0.462001 1.249560 
0.462002 0.191367 1.249561 
0.191370 0.462008 1.539957 
0.462008 0.191370 1.539958 
0.452450 0.212914 3.228832 
0.164399 0.472246 3.252408 
0.193572 0.461046 0.546308 
0.462012 0.191254 0.546701 
0.178910 0.466945 0.783690 
0.467263 0.178076 0.783750 
0.176603 0.467834 1.023171 
0.467919 0.176381 1.023183 
0.176840 0.467766 1.776958 
0.467766 0.176840 1.776959 
0.465391 0.182988 2.395828 
0.182988 0.465390 2.395829 
0.191365 0.461998 2.799107 
0.461997 0.191365 2.799109 
0.357741 0.349356 0.457743 
0.353561 0.353562 3.865888 
0.328740 0.376797 3.143854 
0.413861 0.280659 3.079278 
0.446656 0.224888 2.236447 
0.224888 0.446657 2.236447 
0.090967 0.491735 1.901084 
0.491735 0.090968 1.901085 
0.090367 0.491819 0.901962 
0.491870 0.090089 0.901980 
0.489853 0.100276 3.901032 
0.100275 0.489853 3.901033 
0.421451 0.269164 2.502071 
0.269163 0.421451 2.502072 
0.463155 0.188402 0.121874 
0.189301 0.462789 0.121864 
0.353586 -0.353584 0.785947 
0.353578 -0.353577 0.585999 
0.342194 -0.364587 0.330942 
0.353608 -0.353607 1.673015 
0.353593 -0.353591 0.978245 
0.353604 -0.353603 1.424725 
0.353609 -0.353609 1.894700 
0.353598 -0.353600 2.799215 
0.353607 -0.353609 2.191812 
0.353604 -0.353607 2.420715 
0.353603 -0.353605 2.607197 
0.353592 -0.353594 2.989079 
0.353585 -0.353586 3.178983 
0.343896 -0.362986 3.644861 
0.351182 -0.355956 3.465466 
0.194413 -0.460668 3.809805 
0.169909 -0.470260 0.227676 
0.419915 -0.271445 3.845055 
0.428041 -0.258441 0.182897 
0.154795 -0.475459 3.656486 
0.469825 -0.171127 3.705702 
0.207765 -0.454828 3.471807 
0.450739 -0.216488 3.474566 
0.447653 -0.222895 1.583780 
0.222896 -0.447652 1.583780 
0.459881 -0.196408 1.242677 
0.196410 -0.459879 1.242678 
0.191360 -0.461982 0.793756 
0.461982 -0.191358 0.793756 
0.473057 -0.162141 1.450337 
0.162142 -0.473055 1.450337 
0.225854 -0.446171 2.060613 
0.446171 -0.225855 2.060614 
0.178015 -0.467294 3.047607 
0.467162 -0.178363 3.047609 
0.463453 -0.187837 2.532675 
0.187835 -0.463456 2.532676 
0.194263 -0.460746 0.407016 
0.451580 -0.214709 0.400601 
0.461823 -0.191720 0.596220 
0.191720 -0.461821 0.596219 
0.469485 -0.172215 2.370315 
0.172213 -0.469487 2.370315 
0.179267 -0.466818 1.001339 
0.466819 -0.179265 1.001339 
0.461885 -0.191584 3.268213 
0.189186 -0.462870 3.268189 
0.165165 -0.472015 1.797454 
0.472015 -0.165164 1.797455 
0.200567 -0.458082 2.784280 
0.458061 -0.200611 2.784280 
0.316429 -0.387147 0.153169 
0.316355 -0.387206 3.858143 
0.352239 -0.354917 3.329902 
0.353598 -0.353596 1.122298 
0.443981 -0.230125 2.248670 
0.230123 -0.443982 2.248670 
0.490861 -0.095479 1.106257 
0.095481 -0.490860 1.106258 
0.098363 -0.490235 3.901966 
0.486194 -0.116720 0.129850 
0.353609 -0.353609 2.041943 
0.353601 -0.353599 1.258095 
0.485428 -0.119901 0.264397 
0.490642 -0.096591 2.907760 
0.096487 -0.490664 2.907760 
0.091901 -0.491491 0.107407 
0.482975 -0.129405 3.871018 
-0.353582 -0.353581 0.702406 
-0.364588 -0.342194 0.327741 
-0.353576 -0.353576 0.568656 
-0.353600 -0.353601 1.333789 
-0.353607 -0.353607 1.697617 
-0.353588 -0.353588 0.871299 
-0.353609 -0.353609 1.881174 
-0.369019 -0.337487 2.632446 
-0.353606 -0.353606 2.450546 
-0.353609 -0.353609 2.067303 
-0.351023 -0.356151 2.941103 
-0.353587 -0.353587 3.178996 
-0.362985 -0.343896 3.644864 
-0.355955 -0.351183 3.465468 
-0.460668 -0.194411 3.809807 
-0.470255 -0.169930 0.226930 
-0.271445 -0.419911 3.845059 
-0.257522 -0.428597 0.182568 
-0.475458 -0.154795 3.656488 
-0.171127 -0.469824 3.705709 
-0.454826 -0.207765 3.471812 
-0.216487 -0.450740 3.474570 
-0.222183 -0.448006 1.609258 
-0.448006 -0.222183 1.609258 
-0.208485 -0.454521 1.015072 
-0.454520 -0.208485 1.015072 
-0.453431 -0.210900 2.174225 
-0.210899 -0.453431 2.174225 
-0.466115 -0.181060 0.810106 
-0.181060 -0.466115 0.810106 
-0.194880 -0.460535 1.443510 
-0.460535 -0.194881 1.443510 
-0.197403 -0.459468 2.021535 
-0.459469 -0.197404 2.021535 
-0.184050 -0.464972 2.603135 
-0.467908 -0.176451 2.593945 
-0.197202 -0.459525 3.075888 
-0.467109 -0.178501 3.040930 
-0.460745 -0.194262 0.405939 
-0.211403 -0.453137 0.397224 
-0.467530 -0.177343 0.597451 
-0.177344 -0.467530 0.597451 
-0.181150 -0.466099 1.230315 
-0.466099 -0.181151 1.230315 
-0.191583 -0.461886 3.268237 
-0.462872 -0.189188 3.268214 
-0.471705 -0.166047 1.792701 
-0.166047 -0.471705 1.792701 
-0.177418 -0.467532 2.857244 
-0.441878 -0.234116 2.804541 
-0.387057 -0.316542 0.152229 
-0.387207 -0.316352 3.858146 
-0.354917 -0.352239 3.329908 
-0.353608 -0.353609 2.245746 
-0.353595 -0.353595 1.117757 
-0.490073 -0.099438 1.111559 
-0.099437 -0.490073 1.111558 
-0.491667 -0.091127 0.702167 
-0.091128 -0.491666 0.702167 
-0.165877 -0.471763 2.380551 
-0.471763 -0.165878 2.380551 
-0.490236 -0.098359 3.901965 
-0.116329 -0.486290 0.129582 
-0.118986 -0.485654 0.263385 
-0.353605 -0.353605 1.522824 
-0.316868 -0.386861 2.767692 
-0.488753 -0.105739 2.911157 
-0.491492 -0.091908 0.107222 
-0.129406 -0.482970 3.871024 
-0.353581 0.353583 0.704257 
-0.353576 0.353577 0.565575 
-0.342194 0.364589 0.327137 
-0.353603 0.353605 1.465311 
-0.353606 0.353608 1.676071 
-0.353588 0.353591 0.911998 
-0.353599 0.353601 1.258387 
-0.353601 0.353598 2.799618 
-0.353609 0.353609 1.920295 
-0.353608 0.353604 2.393402 
-0.353609 0.353608 2.159301 
-0.353605 0.353600 2.624166 
-0.353594 0.353591 2.989129 
-0.353589 0.353586 3.178995 
-0.343896 0.362987 3.644861 
-0.351183 0.355955 3.465466 
-0.194410 0.460674 3.809802 
-0.169930 0.470253 0.226871 
-0.419912 0.271449 3.845056 
-0.428592 0.257530 0.182362 
-0.154795 0.475459 3.656483 
-0.469823 0.171129 3.705705 
-0.207764 0.454825 3.471809 
-0.450742 0.216488 3.474570 
-0.445550 0.227021 1.002069 
-0.227019 0.445554 1.002069 
-0.183636 0.465108 0.814728 
-0.465108 0.183638 0.814729 
-0.188628 0.463139 2.036568 
-0.463140 0.188627 2.036566 
-0.477473 0.148633 2.587525 
-0.148636 0.477467 2.587525 
[...]
POINT_DATA 630
SCALARS u float 1
LOOKUP_TABLE default
0.006493
0.006487
0.006531
0.006548
0.006530
0.006535
0.006474
0.006494
0.006482
0.006492
0.006477
0.006502
0.006504
0.006516
0.006517
0.006524
0.006533
0.006519
0.006503
0.006512
0.006512
0.006500
0.006521
0.006519
0.006499
0.006488
0.006459
0.006466
0.006481
0.006495
0.006503
0.006510
0.006415
0.006195
0.005787
0.005265
0.004630
0.003870
0.003031
0.002141
0.001270
0.000785
0.001272
0.002125
0.003008
0.003888
0.004619
0.005272
0.005798
0.006212
0.006454
0.006439
0.006224
0.005807
0.005277
0.004632
0.003878
0.003043
0.002150
0.001275
0.000787
0.001294
0.002140
0.003046
0.003870
0.004607
0.005266
0.005812
0.006174
0.006388
0.006415
0.006193
0.005783
0.005267
0.004620
0.003877
0.003040
0.002152
0.001278
0.000789
0.001280
0.002140
0.003042
0.003876
0.004619
0.005257
0.005787
0.006197
0.006458
0.006452
0.006230
0.005808
0.005273
0.004647
0.003877
0.003035
0.002131
0.001260
0.000795
0.001293
0.002146
0.003046
0.003858
0.004602
0.005264
0.005801
0.006179
0.006416
0.005624
0.006405
0.003111
0.001870
0.004916
0.004220
0.000896
0.003867
0.002101
0.001123
0.003133
0.004404
0.005731
0.006247
0.006454
0.006455
0.006271
0.006275
0.006292
0.006293
0.003058
0.003072
0.000802
0.000810
0.002985
0.002957
0.004664
0.004658
0.005992
0.005982
0.003671
0.003685
0.002414
0.002415
0.005369
0.005445
0.005924
0.005913
0.005327
0.005326
0.004549
0.004552
0.001368
0.001369
0.002122
0.002111
0.003884
0.003869
0.006107
0.006481
0.005115
0.004897
0.001421
0.001424
0.000929
0.000933
0.004955
0.004954
0.006511
0.006505
0.002590
0.002580
0.006460
0.006466
0.005330
0.005841
0.006285
0.001827
0.004715
0.002920
0.000946
0.003859
0.001248
0.002225
0.003073
0.004577
0.005206
0.006259
0.005947
0.006421
0.006428
0.006463
0.006429
0.006261
0.006347
0.005979
0.005968
0.002229
0.002227
0.003712
0.003711
0.005292
0.005298
0.002817
0.002814
0.000851
0.000849
0.004778
0.004793
0.002756
0.002749
0.006179
0.006189
0.005816
0.005808
0.002011
0.002014
0.004623
0.004622
0.005455
0.005453
0.001288
0.001296
0.003817
0.003823
0.006456
0.006455
0.005631
0.004183
0.001476
0.001482
0.004238
0.004243
0.006467
0.006470
0.000819
0.003631
0.006364
0.004298
0.004291
0.006496
0.006499
0.005561
0.006308
0.005900
0.003305
0.001709
0.005075
0.000982
0.003201
0.002381
0.000865
0.004414
0.005204
0.006236
0.005925
0.006405
0.006436
0.006419
0.006453
0.006240
0.006289
0.005944
0.005963
0.002097
0.002098
0.004575
0.004574
0.001190
0.001190
0.005258
0.005253
0.002844
0.002843
0.000803
0.000806
0.003073
0.003027
0.004877
0.004755
0.006207
0.006216
0.005822
0.005821
0.003759
0.003759
0.005461
0.005455
0.001297
0.001301
0.004090
0.003897
0.006480
0.006430
0.005617
0.001467
0.004196
0.004227
0.004219
0.005554
0.005556
0.002059
0.002061
0.006474
0.006489
0.006387
0.002476
0.003745
0.004294
0.006514
0.006435
0.005558
0.005879
0.006304
0.002746
0.001802
0.004947
0.003632
0.003876
0.000880
0.002112
0.001130
0.003155
0.004582
0.005219
0.006265
0.005946
0.006454
0.006413
0.006456
0.006452
0.006294
0.006324
0.005981
0.005954
0.004622
0.004633
0.005244
0.005249
0.000803
0.000814
0.002995
0.002978
0.004873
0.004886
0.006185
0.006214
0.005813
0.005801
0.004056
0.004054
0.005458
0.005464
0.003272
0.003261
0.002364
0.002375
0.001350
0.001342
0.002131
0.002128
0.004043
0.004027
0.006461
0.006474
0.005643
0.004348
0.001431
0.001428
0.005543
0.005545
0.000922
0.000926
0.006499
0.006499
0.002607
0.002599
0.006398
0.006481
0.006468
0.006686
0.006641
0.006630
0.006592
0.006582
0.006622
0.006636
0.006622
0.006631
0.006594
0.006588
0.006622
0.006612
0.006574
0.006556
0.006555
0.006595
0.006668
0.006657
0.006665
0.006656
0.006664
0.006576
0.006564
0.006609
0.006591
0.006614
0.006632
0.006609
0.006634
0.006577
0.006587
0.006601
0.006599
0.006575
0.006588
0.006592
0.006579
0.006652
0.006631
0.006662
0.006625
0.006503
0.005327
0.005399
0.001023
0.000868
0.005552
0.005568
0.004073
0.002546
0.002139
0.002143
0.002947
0.003698
0.003710
0.004401
0.005577
0.005018
0.005965
0.006025
0.006292
0.005570
0.005997
0.001308
0.001297
0.000588
0.001317
0.001269
0.001261
0.004411
0.005654
0.006547
0.006569
0.006617
0.006567
0.006385
0.006535
0.006534
0.006319
0.004392
0.000648
0.000734
0.005607
0.001333
0.005547
0.005013
0.002945
0.005098
0.003715
0.003708
0.003731
0.002958
0.004404
0.003713
0.003687
0.003727
0.004402
0.005995
0.005972
0.006010
0.006296
0.005988
0.006010
0.005569
0.006303
0.005550
0.001449
0.001458
0.002148
0.004524
0.004544
0.006563
0.006518
0.006518
0.006552
0.006295
0.005018
0.005980
0.004406
0.004420
0.005014
0.006567
0.006506
0.006341
0.001463
0.005619
0.004549
0.005122
0.004524
0.003840
0.003853
0.003856
0.006535
0.001293
0.005053
0.005052
0.002284
0.005173
0.006592
0.006400
0.006603
0.006585
0.006407
0.006419
0.006554
0.006345
0.006503
0.005327
0.005399
0.001023
0.000868
0.005552
0.005568
0.004073
0.002546
0.002139
0.002143
0.002947
0.003698
0.003710
0.004401
0.005577
0.005018
0.005965
0.006025
0.006292
0.005570
0.005997
0.001308
0.001297
0.000588
0.001317
0.001269
0.001261
0.004411
0.005654
0.006547
0.006569
0.006617
0.006567
0.006385
0.006535
0.006534
0.006319
0.004392
0.000648
0.000734
0.005607
0.001333
0.005547
0.005013
0.002945
0.005098
0.003715
0.003708
0.003731
0.002958
0.004404
0.003713
0.003687
0.003727
0.004402
0.005995
0.005972
0.006010
0.006296
0.005988
0.006010
0.005569
0.006303
0.005550
0.001449
0.001458
0.002148
0.004524
0.004544
0.006563
0.006518
0.006518
0.006552
0.006295
0.005018
0.005980
0.004406
0.004420
0.005014
0.006567
0.006506
0.006341
0.001463
0.005619
0.004549
0.005122
0.004524
0.003840
0.003853
0.003856
0.006535
0.001293
0.005053
0.005052
0.002284
0.005173
0.006592
0.006400
0.006603
0.006585
0.006407
0.006419
0.006554
0.006345
