# vtk DataFile Version 2.0
Unstructured Grid Example
ASCII
DATASET UNSTRUCTURED_GRID
POINTS 507 float
0.000535 0.500450 0.045707 
0.500864 0.000228 0.046047 
0.000600 -0.500063 0.045433 
-0.499748 0.000213 0.045241 
-0.000369 0.499795 3.954937 
0.499786 -0.000287 3.954926 
-0.000462 -0.500506 3.954154 
-0.500737 -0.000340 3.953939 
0.191949 0.462246 0.045768 
0.354281 0.353886 0.045929 
0.462633 0.191597 0.045965 
0.462644 -0.191217 0.045846 
0.354268 -0.353567 0.045769 
0.191961 -0.461878 0.045596 
-0.190814 -0.461936 0.045225 
-0.353174 -0.353415 0.045042 
-0.461646 -0.191160 0.045153 
-0.461634 0.191578 0.045202 
-0.353116 0.353928 0.045247 
-0.190853 0.462362 0.045537 
0.191027 0.461698 3.955007 
0.353211 0.353252 3.955105 
0.461672 0.191065 3.955072 
0.461681 -0.191725 3.954822 
0.353177 -0.353935 3.954704 
0.190932 -0.462407 3.954392 
-0.191877 -0.462421 3.953983 
-0.354244 -0.353921 3.953976 
-0.462688 -0.191668 3.953814 
-0.462602 0.191033 3.954181 
-0.354076 0.353332 3.954525 
-0.191803 0.461757 3.954783 
0.000350 0.500986 0.245149 
0.000164 0.501799 0.443540 
-0.000135 0.502558 0.640623 
-0.000206 0.503222 0.836808 
-0.000358 0.503793 1.032250 
-0.000366 0.504317 1.226799 
-0.000399 0.504768 1.420677 
-0.000320 0.505085 1.613990 
-0.000219 0.505310 1.806941 
-0.000076 0.505453 1.999973 
0.000108 0.505497 2.192786 
0.000275 0.505274 2.385910 
0.000347 0.504900 2.579406 
0.000332 0.504711 2.773149 
0.000223 0.504194 2.967917 
0.000334 0.503537 3.163379 
0.000136 0.502398 3.359764 
-0.000056 0.501831 3.557040 
-0.000211 0.500777 3.755469 
0.000360 -0.500755 0.244843 
0.000155 -0.501731 0.443247 
-0.000083 -0.502505 0.640562 
-0.000311 -0.503289 0.836697 
-0.000338 -0.504001 1.032102 
-0.000443 -0.504589 1.226676 
-0.000375 -0.505136 1.420712 
-0.000314 -0.505410 1.614066 
-0.000195 -0.505563 1.807152 
-0.000021 -0.505614 2.000106 
0.000118 -0.505429 2.192987 
0.000272 -0.505120 2.386042 
0.000350 -0.504670 2.579423 
0.000369 -0.504323 2.773203 
0.000361 -0.503800 2.967808 
0.000252 -0.503113 3.163165 
0.000060 -0.502408 3.359243 
-0.000028 -0.501770 3.556456 
-0.000249 -0.501078 3.754674 
0.501281 0.000135 0.245443 
0.501895 0.000125 0.443867 
0.502653 0.000024 0.641035 
0.502946 -0.000013 0.836944 
0.503701 -0.000130 1.032274 
0.504177 -0.000107 1.226891 
0.504590 -0.000224 1.420807 
0.504875 -0.000174 1.613883 
0.505214 -0.000125 1.806850 
0.505525 -0.000059 1.999811 
0.505595 0.000019 2.192677 
0.505401 0.000128 2.385887 
0.505083 0.000175 2.579403 
0.504829 0.000140 2.773199 
0.504252 0.000167 2.968154 
0.503332 0.000224 3.163530 
0.502537 0.000162 3.359488 
0.501800 -0.000044 3.556931 
0.500739 -0.000201 3.755463 
-0.500550 0.000176 0.244668 
-0.501640 0.000096 0.443017 
-0.502488 0.000043 0.640267 
-0.503347 -0.000088 0.836506 
-0.504202 -0.000126 1.032039 
-0.504841 -0.000202 1.226756 
-0.505277 -0.000227 1.420753 
-0.505496 -0.000198 1.614115 
-0.505573 -0.000125 1.807196 
-0.505611 -0.000074 2.000201 
-0.505367 -0.000007 2.193080 
-0.505011 0.000050 2.386111 
-0.504561 0.000150 2.579495 
-0.504259 0.000152 2.773364 
-0.503707 0.000286 2.967728 
-0.503000 0.000181 3.163021 
-0.502216 0.000159 3.359089 
-0.501950 0.000063 3.556104 
-0.501310 -0.000167 3.754441 
0.354398 -0.356530 0.720269 
0.353529 -0.355083 0.253931 
0.356705 -0.357272 1.495797 
0.355482 -0.356433 0.967293 
0.357069 -0.357498 1.690518 
0.356495 -0.357053 1.237616 
0.357350 -0.357550 1.923736 
0.356946 -0.356457 2.773408 
0.357534 -0.357145 2.379707 
0.357233 -0.356685 2.603156 
0.357504 -0.357415 2.153802 
0.356811 -0.356352 2.907746 
0.367924 -0.342472 3.311093 
0.354714 -0.354751 3.581320 
0.201727 -0.458603 3.761594 
0.458176 -0.202101 3.762048 
0.162312 -0.474465 3.605018 
0.474528 -0.162524 3.605477 
0.175703 -0.469705 0.362852 
0.468979 -0.178002 0.363085 
0.192711 -0.466349 1.229363 
0.465785 -0.193255 1.229405 
0.190674 -0.468238 2.035637 
0.468181 -0.190730 2.035473 
0.150427 -0.481843 2.567618 
0.482341 -0.149877 2.567547 
0.480985 -0.151171 2.974873 
0.151690 -0.480508 2.974636 
0.466051 -0.187217 3.430510 
0.187352 -0.465932 3.430331 
0.214491 -0.455091 3.192029 
0.475143 -0.165202 3.215242 
0.463390 -0.194519 0.587377 
0.192217 -0.464213 0.587681 
0.475179 -0.164586 0.836349 
0.163438 -0.475865 0.835854 
0.467181 -0.188475 1.088510 
0.187702 -0.467798 1.088322 
0.192812 -0.466623 1.370876 
0.466091 -0.193378 1.370900 
0.466387 -0.193555 1.566191 
0.192983 -0.466850 1.566196 
0.178536 -0.472927 1.790147 
0.472574 -0.178856 1.790022 
0.185152 -0.470078 2.382144 
0.470444 -0.184727 2.382024 
0.193355 -0.465830 2.772789 
0.466394 -0.192875 2.772806 
0.350891 -0.359168 0.500033 
0.353743 -0.354259 3.821362 
0.379580 -0.330814 3.108904 
0.282965 -0.416731 3.045770 
0.227444 -0.451388 2.228809 
0.451565 -0.227264 2.228715 
0.091854 -0.497137 1.906278 
0.496946 -0.092038 1.906108 
0.100064 -0.490677 3.856075 
0.490114 -0.100644 3.856747 
0.272146 -0.425455 2.484927 
0.425930 -0.271661 2.484816 
0.189102 -0.463516 0.166729 
0.463822 -0.189385 0.166938 
-0.355872 -0.355700 0.807652 
-0.365390 -0.343096 0.374197 
-0.355351 -0.355287 0.629581 
-0.357585 -0.357483 1.691432 
-0.357438 -0.357299 1.506265 
-0.357145 -0.356919 1.258770 
-0.356611 -0.356381 1.031938 
-0.357543 -0.357541 1.901815 
-0.356458 -0.356635 2.773384 
-0.356684 -0.356847 2.589522 
-0.356948 -0.357106 2.435482 
-0.357417 -0.357482 2.069219 
-0.356069 -0.356219 2.957554 
-0.355506 -0.355519 3.226528 
-0.365836 -0.343317 3.624398 
-0.355134 -0.355202 3.376536 
-0.471537 -0.170456 3.726980 
-0.470860 -0.170142 0.271429 
-0.253414 -0.432436 3.765176 
-0.258292 -0.428708 0.227144 
-0.209838 -0.459818 2.167280 
-0.459736 -0.209947 2.167315 
-0.149937 -0.480482 0.846246 
-0.480598 -0.149692 0.846191 
-0.167300 -0.477136 1.989043 
-0.477138 -0.167337 1.989100 
-0.177801 -0.472189 2.574013 
-0.472058 -0.177990 2.574072 
-0.465343 -0.192679 2.964133 
-0.192531 -0.465460 2.964137 
-0.462233 -0.194858 0.448066 
-0.214321 -0.453560 0.443589 
-0.462541 -0.194994 3.547193 
-0.184511 -0.466754 3.526145 
-0.464089 -0.192655 0.636275 
-0.192736 -0.464062 0.636401 
-0.465016 -0.190250 3.299835 
-0.188519 -0.465871 3.296200 
-0.191772 -0.465305 3.095641 
-0.465084 -0.192143 3.096204 
-0.469218 -0.184506 1.033042 
-0.184746 -0.469026 1.033170 
-0.460077 -0.208750 1.352106 
-0.208947 -0.459910 1.352110 
-0.467020 -0.193563 1.566567 
-0.193695 -0.466899 1.566559 
-0.189281 -0.468825 1.761763 
-0.468872 -0.189207 1.761777 
-0.465950 -0.192962 2.773247 
-0.192754 -0.466092 2.773191 
-0.388147 -0.317105 3.801346 
-0.387244 -0.316816 0.197298 
-0.357241 -0.357367 2.238003 
-0.476624 -0.167046 2.367556 
-0.166853 -0.476742 2.367529 
-0.271305 -0.424359 0.928101 
-0.424545 -0.271093 0.928045 
-0.114238 -0.487737 3.822118 
-0.116321 -0.486685 0.174373 
-0.449009 -0.230440 1.180608 
-0.230666 -0.448733 1.180657 
-0.112055 -0.488666 3.683590 
-0.119602 -0.486570 0.308245 
-0.492534 -0.092229 3.847133 
-0.491676 -0.091817 0.151745 
-0.355706 0.355529 0.742431 
-0.355208 0.355239 0.606005 
-0.342957 0.365704 0.370354 
-0.357474 0.356910 1.483670 
-0.357593 0.357144 1.687430 
-0.356405 0.356036 0.945922 
-0.357233 0.356627 1.283075 
-0.356479 0.356965 2.773111 
-0.357550 0.357348 1.923151 
-0.357376 0.357419 2.153840 
-0.356567 0.357086 2.602559 
-0.357001 0.357309 2.380726 
-0.355731 0.356151 3.132499 
-0.356069 0.356688 2.955713 
-0.345026 0.364127 3.602042 
-0.352684 0.357706 3.426104 
-0.194970 0.461412 3.765742 
-0.169970 0.471323 0.271134 
-0.420834 0.271651 3.800454 
-0.428920 0.258123 0.226500 
-0.155375 0.476820 3.613691 
-0.471324 0.171259 3.661395 
-0.208546 0.456865 3.430658 
-0.453454 0.216069 3.430905 
-0.449307 0.228604 1.033666 
-0.229112 0.448864 1.033842 
-0.185092 0.468054 0.850787 
-0.468276 0.184763 0.850563 
-0.468232 0.190634 2.035421 
-0.190704 0.468102 2.035309 
-0.481747 0.150201 2.567451 
-0.149689 0.482123 2.567402 
-0.462930 0.198172 3.039972 
-0.197373 0.463602 3.039886 
-0.194788 0.462364 0.448879 
-0.454491 0.212296 0.439246 
-0.469732 0.178558 0.637878 
-0.178646 0.469739 0.638123 
-0.463777 0.198852 1.182036 
-0.199443 0.463223 1.182114 
-0.469937 0.184887 2.382339 
-0.184604 0.470309 2.382149 
-0.466800 0.192990 1.367817 
-0.193571 0.466185 1.367770 
-0.466981 0.193099 1.563375 
-0.193653 0.466514 1.563353 
-0.178959 0.472642 1.789057 
-0.472966 0.178574 1.789198 
-0.456594 0.213834 2.811101 
-0.213325 0.457201 2.810947 
-0.464614 0.192374 3.228225 
-0.190002 0.465743 3.228289 
-0.316595 0.387811 0.196477 
-0.317063 0.387568 3.813705 
-0.353827 0.356945 3.289778 
-0.356873 0.356300 1.110293 
-0.092591 0.494258 0.741720 
-0.494312 0.092386 0.741432 
-0.451283 0.227289 2.229069 
-0.227200 0.451470 2.228925 
-0.425341 0.271946 2.484836 
-0.271482 0.425743 2.484776 
-0.497177 0.091844 1.906084 
-0.092082 0.496946 1.905872 
-0.098779 0.490555 3.857658 
-0.486519 0.116665 0.173873 
-0.486543 0.119451 0.306896 
-0.091572 0.492256 0.152019 
-0.483997 0.129282 3.825919 
0.356380 0.354483 0.717570 
0.355618 0.353309 0.254076 
0.356668 0.356945 1.406650 
0.356030 0.355797 0.947652 
0.356277 0.356450 1.145826 
0.356972 0.357140 1.670815 
0.357341 0.357368 1.919085 
0.357035 0.356912 2.773302 
0.357460 0.357299 2.379604 
0.357169 0.357006 2.603112 
0.357545 0.357483 2.152276 
0.356805 0.356706 2.907895 
0.342625 0.367924 3.311268 
0.354767 0.354752 3.581581 
0.458175 0.201736 3.762224 
0.201703 0.458188 3.762199 
0.474538 0.162404 3.605617 
0.162374 0.474537 3.605595 
0.470046 0.175559 0.363248 
0.178410 0.468826 0.362991 
0.192819 0.466344 1.414090 
0.466141 0.193094 1.414208 
0.190625 0.468134 2.033561 
0.468216 0.190655 2.033519 
0.482223 0.150213 2.567564 
0.150389 0.482081 2.567557 
0.151519 0.480877 2.974737 
0.480972 0.151502 2.974862 
0.187282 0.465908 3.430825 
0.465998 0.187464 3.430697 
0.465897 0.192967 1.274688 
0.192709 0.466025 1.274553 
0.192961 0.466584 1.555761 
0.466290 0.193191 1.555707 
0.455226 0.214413 3.192351 
0.165615 0.475242 3.215318 
[...]
POINT_DATA 507
SCALARS u float 1
LOOKUP_TABLE default
0.009236
0.009306
0.009181
0.009142
0.009106
0.009108
0.009265
0.009308
0.009249
0.009282
0.009289
0.009265
0.009249
0.009214
0.009139
0.009101
0.009124
0.009134
0.009143
0.009202
0.009092
0.009072
0.009078
0.009129
0.009153
0.009216
0.009299
0.009301
0.009334
0.009259
0.009189
0.009137
0.009125
0.008805
0.008224
0.007466
0.006562
0.005485
0.004288
0.003008
0.001766
0.001102
0.001833
0.003040
0.004278
0.005509
0.006538
0.007434
0.008144
0.008688
0.008999
0.009062
0.008745
0.008212
0.007445
0.006537
0.005470
0.004312
0.003046
0.001831
0.001135
0.001792
0.003005
0.004264
0.005485
0.006550
0.007469
0.008250
0.008806
0.009161
0.009186
0.008872
0.008309
0.007489
0.006564
0.005499
0.004306
0.002973
0.001740
0.001117
0.001862
0.003053
0.004287
0.005503
0.006492
0.007400
0.008202
0.008710
0.009000
0.009026
0.008698
0.008152
0.007407
0.006529
0.005494
0.004327
0.003061
0.001839
0.001135
0.001769
0.002984
0.004245
0.005450
0.006564
0.007497
0.008279
0.008878
0.009209
0.007996
0.009139
0.003772
0.006855
0.002515
0.005435
0.001241
0.005448
0.003009
0.004417
0.001619
0.006237
0.008014
0.008812
0.009122
0.009030
0.008879
0.008788
0.008935
0.008996
0.005452
0.005450
0.001156
0.001158
0.004194
0.004223
0.006550
0.006590
0.008426
0.008462
0.007571
0.007644
0.008433
0.008414
0.007558
0.007451
0.006262
0.006230
0.004607
0.004600
0.003318
0.003332
0.001911
0.001864
0.003005
0.003040
0.005467
0.005475
0.008679
0.009129
0.007200
0.006910
0.002029
0.002054
0.001320
0.001275
0.009217
0.009080
0.003662
0.003691
0.009195
0.009241
0.007523
0.008810
0.008197
0.002591
0.003766
0.005290
0.006528
0.001382
0.005446
0.004321
0.003313
0.001213
0.006514
0.007780
0.009020
0.008344
0.009191
0.008994
0.009219
0.009031
0.001629
0.001620
0.007381
0.007370
0.001141
0.001145
0.004219
0.004204
0.006552
0.006553
0.008643
0.008688
0.008860
0.008762
0.008171
0.008197
0.008034
0.008046
0.007202
0.007208
0.006520
0.006544
0.004750
0.004748
0.003389
0.003384
0.002128
0.002132
0.005476
0.005489
0.009252
0.009045
0.002017
0.002853
0.002862
0.007008
0.006997
0.009243
0.009113
0.005731
0.005736
0.009071
0.008957
0.009293
0.009095
0.007847
0.008301
0.008864
0.003905
0.002572
0.006996
0.005152
0.005508
0.001259
0.001579
0.004441
0.002966
0.007357
0.006526
0.008855
0.008420
0.009057
0.009076
0.009168
0.009050
0.008823
0.009020
0.008428
0.008478
0.006531
0.006562
0.007422
0.007378
0.001146
0.001132
0.004188
0.004208
0.006904
0.006925
0.008738
0.008719
0.008167
0.008217
0.005742
0.005749
0.002967
0.003021
0.004652
0.004628
0.003379
0.003362
0.001902
0.001945
0.005712
0.005753
0.007748
0.007721
0.009101
0.009133
0.007994
0.006157
0.007858
0.007800
0.001982
0.002021
0.003651
0.003667
0.001347
0.001292
0.009089
0.009095
0.008953
0.009187
0.009238
0.008034
0.009170
0.004390
0.006998
0.005969
0.002603
0.001219
0.005482
0.003030
0.004433
0.001652
0.006214
0.007980
0.008759
0.008993
0.008998
0.008759
0.008764
0.009016
0.008977
0.004318
0.004337
0.001140
0.001159
0.004218
0.004216
0.006577
0.006554
0.008362
0.008389
0.005222
0.005196
0.003389
0.003367
0.007507
0.007633
0.008498
0.008450
0.007575
0.007576
0.006450
0.006451
0.001891
0.001866
0.003051
0.003038
0.005490
0.005490
0.008726
0.009051
0.007172
0.006876
0.002095
0.002077
0.001282
0.001272
0.007027
0.007034
0.009066
0.009053
0.003690
0.003687
0.009269
0.009225
0.009465
0.009384
0.009379
0.009402
0.009356
0.009303
0.009457
0.009377
0.009357
0.009363
0.009406
0.009264
0.009283
0.009354
0.009289
0.009401
0.009256
0.009443
0.009423
0.009448
0.009428
0.009366
0.009254
0.009227
0.009381
0.009446
0.009437
0.009342
0.009396
0.009310
0.009416
0.009319
0.009382
0.009355
0.009380
0.009272
0.009396
0.009271
0.009320
0.009407
0.009329
0.009255
0.009443
0.009426
0.009437
0.009383
0.009275
0.009336
0.009376
0.009258
0.007536
0.005777
0.009325
0.009273
0.009322
0.009038
0.009273
0.009191
0.009221
0.008951
0.009213
0.008905
0.009260
0.008996
0.009222
0.008920
0.008911
0.007652
0.005930
0.003766
0.001416
0.001266
0.003626
0.007851
0.007094
0.003024
0.003042
0.004176
0.005260
0.005256
0.006229
0.007877
0.008465
0.008490
0.007840
0.007110
0.008436
0.001876
0.001874
0.000818
0.001853
0.001798
0.001797
0.006241
0.008003
0.009294
0.009342
0.009356
0.009031
0.008888
0.001005
0.000901
0.005276
0.003082
0.007239
0.007226
0.007993
0.007276
0.008017
0.007988
0.002023
0.002028
0.007078
0.006213
0.009022
0.009085
0.008590
0.005251
0.009295
0.009322
0.009337
0.009328
0.001809
0.001806
0.007142
0.007196
0.003274
0.007335
0.006280
0.001868
0.001863
0.000799
0.003042
0.000948
0.003201
0.003227
0.003236
0.004370
0.002059
