# vtk DataFile Version 2.0
Unstructured Grid Example
ASCII
DATASET UNSTRUCTURED_GRID
POINTS 507 float
-0.000102 0.499914 -0.008739 
0.499835 -0.000044 -0.008804 
-0.000115 -0.499988 -0.008687 
-0.500048 -0.000041 -0.008650 
0.000071 0.500039 4.008616 
0.500041 0.000055 4.008618 
0.000088 -0.499903 4.008766 
-0.499859 0.000065 4.008807 
0.191226 0.461881 -0.008751 
0.353414 0.353490 -0.008782 
0.461807 0.191293 -0.008788 
0.461805 -0.191366 -0.008766 
0.353417 -0.353551 -0.008751 
0.191223 -0.461952 -0.008718 
-0.191443 -0.461940 -0.008647 
-0.353626 -0.353580 -0.008612 
-0.461996 -0.191377 -0.008633 
-0.461998 0.191296 -0.008642 
-0.353637 0.353482 -0.008651 
-0.191435 0.461859 -0.008707 
0.191402 0.461986 4.008603 
0.353619 0.353611 4.008584 
0.461991 0.191395 4.008590 
0.461989 -0.191268 4.008638 
0.353625 -0.353480 4.008660 
0.191420 -0.461850 4.008720 
-0.191239 -0.461848 4.008798 
-0.353421 -0.353483 4.008800 
-0.461797 -0.191279 4.008831 
-0.461813 0.191401 4.008760 
-0.353453 0.353596 4.008695 
-0.191254 0.461975 4.008645 
-0.000067 0.499812 0.191368 
-0.000031 0.499656 0.391675 
0.000026 0.499511 0.592233 
0.000039 0.499384 0.792962 
0.000068 0.499275 0.993834 
0.000070 0.499175 1.194876 
0.000076 0.499088 1.396047 
0.000061 0.499028 1.597325 
0.000042 0.498985 1.798673 
0.000014 0.498957 2.000005 
-0.000021 0.498949 2.201379 
-0.000053 0.498992 2.402694 
-0.000066 0.499063 2.603938 
-0.000064 0.499099 2.805134 
-0.000043 0.499198 3.006134 
-0.000064 0.499324 3.207002 
-0.000026 0.499541 3.407693 
0.000011 0.499650 3.608214 
0.000040 0.499852 3.808514 
-0.000069 -0.499856 0.191426 
-0.000030 -0.499669 0.391731 
0.000016 -0.499521 0.592245 
0.000060 -0.499371 0.792984 
0.000065 -0.499235 0.993862 
0.000085 -0.499123 1.194900 
0.000072 -0.499018 1.396040 
0.000060 -0.498966 1.597311 
0.000037 -0.498936 1.798632 
0.000004 -0.498927 1.999980 
-0.000023 -0.498962 2.201341 
-0.000052 -0.499021 2.402669 
-0.000067 -0.499107 2.603934 
-0.000071 -0.499173 2.805124 
-0.000069 -0.499273 3.006155 
-0.000048 -0.499405 3.207043 
-0.000011 -0.499540 3.407793 
0.000005 -0.499662 3.608326 
0.000048 -0.499794 3.808666 
0.499755 -0.000026 0.191311 
0.499638 -0.000024 0.391613 
0.499493 -0.000005 0.592154 
0.499437 0.000002 0.792936 
0.499292 0.000025 0.993829 
0.499201 0.000020 1.194858 
0.499122 0.000043 1.396022 
0.499068 0.000033 1.597346 
0.499003 0.000024 1.798690 
0.498944 0.000011 2.000036 
0.498930 -0.000004 2.201400 
0.498967 -0.000024 2.402698 
0.499028 -0.000034 2.603938 
0.499077 -0.000027 2.805124 
0.499187 -0.000032 3.006089 
0.499363 -0.000043 3.206973 
0.499515 -0.000031 3.407746 
0.499656 0.000008 3.608235 
0.499859 0.000038 3.808515 
-0.499895 -0.000034 0.191460 
-0.499687 -0.000018 0.391775 
-0.499524 -0.000008 0.592301 
-0.499360 0.000017 0.793020 
-0.499197 0.000024 0.993874 
-0.499074 0.000039 1.194884 
-0.498991 0.000043 1.396032 
-0.498949 0.000038 1.597301 
-0.498935 0.000024 1.798624 
-0.498927 0.000014 1.999962 
-0.498974 0.000001 2.201323 
-0.499042 -0.000010 2.402656 
-0.499128 -0.000029 2.603921 
-0.499186 -0.000029 2.805093 
-0.499291 -0.000055 3.006170 
-0.499426 -0.000035 3.207070 
-0.499576 -0.000030 3.407822 
-0.499627 -0.000012 3.608393 
-0.499750 0.000032 3.808711 
0.352161 -0.354211 0.673243 
0.352319 -0.354496 0.200068 
0.352951 -0.352842 1.474333 
0.352928 -0.353259 0.927087 
0.352881 -0.352799 1.677095 
0.352991 -0.352884 1.206043 
0.352827 -0.352789 1.920508 
0.352905 -0.352998 2.805084 
0.352792 -0.352867 2.396255 
0.352850 -0.352955 2.628550 
0.352798 -0.352815 2.160719 
0.352931 -0.353018 2.944156 
0.365461 -0.340488 3.358231 
0.353331 -0.353324 3.633231 
0.201543 -0.457370 3.815358 
0.457452 -0.201472 3.815272 
0.161891 -0.472771 3.657336 
0.472759 -0.161851 3.657248 
0.174810 -0.468141 0.310210 
0.467069 -0.177586 0.310088 
0.191080 -0.461097 1.197695 
0.461205 -0.190976 1.197687 
0.188201 -0.462078 2.037187 
0.462089 -0.188191 2.037218 
0.148267 -0.476555 2.591677 
0.476459 -0.148372 2.591691 
0.476145 -0.149956 3.013164 
0.149856 -0.476237 3.013209 
0.463510 -0.186356 3.480114 
0.186330 -0.463533 3.480148 
0.212591 -0.451898 3.236505 
0.471643 -0.164228 3.260160 
0.460561 -0.193374 0.537752 
0.191054 -0.461555 0.538163 
0.471978 -0.163363 0.791925 
0.162574 -0.472195 0.792089 
0.463146 -0.186483 1.051866 
0.186354 -0.463140 1.051913 
0.191061 -0.461044 1.344354 
0.461146 -0.190952 1.344350 
0.461090 -0.190919 1.547548 
0.191028 -0.461001 1.547547 
0.176483 -0.466693 1.780993 
0.466761 -0.176422 1.781017 
0.182543 -0.464413 2.398724 
0.464343 -0.182624 2.398747 
0.190957 -0.461196 2.804595 
0.461088 -0.191049 2.804592 
0.349039 -0.357444 0.448931 
0.353517 -0.353418 3.875172 
0.376224 -0.328307 3.151142 
0.280186 -0.413261 3.086264 
0.224358 -0.445670 2.238854 
0.445636 -0.224393 2.238872 
0.090781 -0.490610 1.902178 
0.490647 -0.090746 1.902210 
0.100312 -0.489683 3.910402 
0.489790 -0.100201 3.910274 
0.268549 -0.420615 2.505654 
0.420524 -0.268641 2.505675 
0.188265 -0.463077 0.112529 
0.462582 -0.189281 0.112476 
-0.353110 -0.353143 0.763461 
-0.364416 -0.342005 0.322282 
-0.353210 -0.353222 0.581346 
-0.352783 -0.352802 1.677705 
-0.352811 -0.352837 1.485015 
-0.352867 -0.352910 1.228138 
-0.352969 -0.353013 0.993774 
-0.352791 -0.352791 1.897207 
-0.352998 -0.352964 2.805089 
-0.352955 -0.352924 2.614412 
-0.352904 -0.352874 2.454116 
-0.352815 -0.352802 2.072061 
-0.353072 -0.353044 2.995707 
-0.353180 -0.353178 3.272273 
-0.364331 -0.341962 3.677537 
-0.353251 -0.353238 3.425653 
-0.470000 -0.169800 3.781139 
-0.470121 -0.169883 0.218415 
-0.252443 -0.431323 3.819507 
-0.258216 -0.428051 0.173906 
-0.207227 -0.453893 2.174376 
-0.453909 -0.207206 2.174369 
-0.148428 -0.476794 0.802918 
-0.476771 -0.148475 0.802928 
-0.165083 -0.470824 1.988339 
-0.470823 -0.165076 1.988328 
-0.176161 -0.467009 2.598283 
-0.467034 -0.176125 2.598271 
-0.461289 -0.191086 3.002515 
-0.191114 -0.461267 3.002514 
-0.460434 -0.194138 0.397147 
-0.213611 -0.451725 0.392407 
-0.460375 -0.194112 3.599372 
-0.183672 -0.464652 3.577750 
-0.461349 -0.191525 0.588195 
-0.191509 -0.461354 0.588171 
-0.462317 -0.189205 3.347112 
-0.187461 -0.462998 3.343533 
-0.190524 -0.461601 3.137920 
-0.461500 -0.190798 3.138525 
-0.464572 -0.182681 0.994929 
-0.182635 -0.464609 0.994905 
-0.454414 -0.206181 1.324802 
-0.206143 -0.454446 1.324802 
-0.460969 -0.190917 1.547711 
-0.190892 -0.460992 1.547712 
-0.186639 -0.462707 1.751135 
-0.462698 -0.186653 1.751132 
-0.461173 -0.191032 2.805115 
-0.191072 -0.461146 2.805126 
-0.386945 -0.316294 3.855869 
-0.387009 -0.316482 0.143974 
-0.352848 -0.352824 2.248078 
-0.470949 -0.165055 2.383266 
-0.165091 -0.470926 2.383271 
-0.268725 -0.420814 0.887022 
-0.420779 -0.268766 0.887033 
-0.113642 -0.486730 3.876594 
-0.116670 -0.486121 0.120654 
-0.444008 -0.227949 1.147289 
-0.227906 -0.444061 1.147280 
-0.111523 -0.487139 3.737044 
-0.119616 -0.485274 0.255457 
-0.491280 -0.091839 3.901902 
-0.491443 -0.091924 0.098124 
-0.353142 0.353176 0.696299 
-0.353237 0.353231 0.557146 
-0.342031 0.364356 0.318124 
-0.352804 0.352912 1.461485 
-0.352781 0.352867 1.673704 
-0.353008 0.353079 0.904926 
-0.352850 0.352966 1.253242 
-0.352994 0.352901 2.805141 
-0.352789 0.352828 1.919689 
-0.352822 0.352814 2.160525 
-0.352977 0.352878 2.628151 
-0.352894 0.352835 2.397125 
-0.353137 0.353057 3.175681 
-0.353072 0.352954 2.993888 
-0.343661 0.362747 3.654206 
-0.350867 0.355592 3.475663 
-0.194300 0.460514 3.819123 
-0.169916 0.470033 0.217646 
-0.419727 0.271401 3.854491 
-0.428516 0.257408 0.173156 
-0.154676 0.475173 3.665678 
-0.469640 0.170754 3.714544 
-0.207598 0.454401 3.480273 
-0.451093 0.214652 3.480808 
-0.444776 0.226688 0.995481 
-0.226591 0.444861 0.995447 
-0.183338 0.464492 0.807212 
-0.464449 0.183400 0.807255 
-0.462079 0.188209 2.036790 
-0.188195 0.462104 2.036811 
-0.476573 0.148310 2.591519 
-0.148408 0.476501 2.591528 
-0.459194 0.196112 3.080447 
-0.195896 0.459223 3.080447 
-0.194151 0.460409 0.397408 
-0.452824 0.211280 0.387880 
-0.466927 0.177472 0.589827 
-0.177455 0.466926 0.589780 
-0.458558 0.197089 1.148636 
-0.196976 0.458664 1.148621 
-0.464440 0.182594 2.398788 
-0.182648 0.464369 2.398825 
-0.461010 0.191026 1.341079 
-0.190915 0.461128 1.341088 
-0.460976 0.191006 1.544494 
-0.190900 0.461065 1.544498 
-0.176402 0.466748 1.779864 
-0.466686 0.176476 1.779837 
-0.452229 0.211399 2.844404 
-0.211444 0.452137 2.844431 
-0.461595 0.190743 3.273776 
-0.189012 0.462277 3.273664 
-0.316524 0.386901 0.142829 
-0.316212 0.387130 3.867538 
-0.351903 0.354497 3.336802 
-0.352919 0.353028 1.074357 
-0.091748 0.490955 0.695521 
-0.490944 0.091787 0.695576 
-0.445690 0.224388 2.238912 
-0.224405 0.445655 2.238940 
-0.420637 0.268587 2.505566 
-0.268676 0.420560 2.505578 
-0.490603 0.090783 1.901763 
-0.090738 0.490647 1.901804 
-0.098280 0.490168 3.911239 
-0.486233 0.116266 0.120258 
-0.485460 0.118908 0.254130 
-0.091970 0.491332 0.097866 
-0.482785 0.129361 3.880367 
0.354240 0.352145 0.670312 
0.354394 0.352361 0.200041 
0.352958 0.352905 1.381357 
0.353336 0.352868 0.906586 
0.353033 0.353000 1.110954 
0.352900 0.352868 1.656653 
0.352829 0.352824 1.915817 
0.352888 0.352911 2.805105 
0.352806 0.352837 2.396265 
0.352862 0.352893 2.628557 
0.352790 0.352802 2.159371 
0.352932 0.352951 2.944127 
0.340459 0.365461 3.358197 
0.353321 0.353324 3.633181 
0.457452 0.201542 3.815238 
0.201548 0.457449 3.815243 
0.472757 0.161874 3.657222 
0.161879 0.472757 3.657226 
0.468076 0.174838 0.310135 
0.177508 0.467098 0.310106 
0.191059 0.461098 1.389241 
0.461136 0.191007 1.389218 
0.188211 0.462098 2.035257 
0.462082 0.188205 2.035265 
0.476482 0.148308 2.591683 
0.148274 0.476509 2.591684 
0.149889 0.476166 3.013190 
0.476148 0.149893 3.013166 
0.186343 0.463538 3.480054 
0.463520 0.186308 3.480078 
0.461183 0.191031 1.244326 
0.191080 0.461159 1.244352 
0.191032 0.461052 1.536663 
0.461108 0.190988 1.536673 
0.451872 0.212606 3.236444 
[...]
POINT_DATA 507
SCALARS u float 1
LOOKUP_TABLE default
0.009236
0.009306
0.009181
0.009142
0.009106
0.009108
0.009265
0.009308
0.009249
0.009282
0.009289
0.009265
0.009249
0.009214
0.009139
0.009101
0.009124
0.009134
0.009143
0.009202
0.009092
0.009072
0.009078
0.009129
0.009153
0.009216
0.009299
0.009301
0.009334
0.009259
0.009189
0.009137
0.009125
0.008805
0.008224
0.007466
0.006562
0.005485
0.004288
0.003008
0.001766
0.001102
0.001833
0.003040
0.004278
0.005509
0.006538
0.007434
0.008144
0.008688
0.008999
0.009062
0.008745
0.008212
0.007445
0.006537
0.005470
0.004312
0.003046
0.001831
0.001135
0.001792
0.003005
0.004264
0.005485
0.006550
0.007469
0.008250
0.008806
0.009161
0.009186
0.008872
0.008309
0.007489
0.006564
0.005499
0.004306
0.002973
0.001740
0.001117
0.001862
0.003053
0.004287
0.005503
0.006492
0.007400
0.008202
0.008710
0.009000
0.009026
0.008698
0.008152
0.007407
0.006529
0.005494
0.004327
0.003061
0.001839
0.001135
0.001769
0.002984
0.004245
0.005450
0.006564
0.007497
0.008279
0.008878
0.009209
0.007996
0.009139
0.003772
0.006855
0.002515
0.005435
0.001241
0.005448
0.003009
0.004417
0.001619
0.006237
0.008014
0.008812
0.009122
0.009030
0.008879
0.008788
0.008935
0.008996
0.005452
0.005450
0.001156
0.001158
0.004194
0.004223
0.006550
0.006590
0.008426
0.008462
0.007571
0.007644
0.008433
0.008414
0.007558
0.007451
0.006262
0.006230
0.004607
0.004600
0.003318
0.003332
0.001911
0.001864
0.003005
0.003040
0.005467
0.005475
0.008679
0.009129
0.007200
0.006910
0.002029
0.002054
0.001320
0.001275
0.009217
0.009080
0.003662
0.003691
0.009195
0.009241
0.007523
0.008810
0.008197
0.002591
0.003766
0.005290
0.006528
0.001382
0.005446
0.004321
0.003313
0.001213
0.006514
0.007780
0.009020
0.008344
0.009191
0.008994
0.009219
0.009031
0.001629
0.001620
0.007381
0.007370
0.001141
0.001145
0.004219
0.004204
0.006552
0.006553
0.008643
0.008688
0.008860
0.008762
0.008171
0.008197
0.008034
0.008046
0.007202
0.007208
0.006520
0.006544
0.004750
0.004748
0.003389
0.003384
0.002128
0.002132
0.005476
0.005489
0.009252
0.009045
0.002017
0.002853
0.002862
0.007008
0.006997
0.009243
0.009113
0.005731
0.005736
0.009071
0.008957
0.009293
0.009095
0.007847
0.008301
0.008864
0.003905
0.002572
0.006996
0.005152
0.005508
0.001259
0.001579
0.004441
0.002966
0.007357
0.006526
0.008855
0.008420
0.009057
0.009076
0.009168
0.009050
0.008823
0.009020
0.008428
0.008478
0.006531
0.006562
0.007422
0.007378
0.001146
0.001132
0.004188
0.004208
0.006904
0.006925
0.008738
0.008719
0.008167
0.008217
0.005742
0.005749
0.002967
0.003021
0.004652
0.004628
0.003379
0.003362
0.001902
0.001945
0.005712
0.005753
0.007748
0.007721
0.009101
0.009133
0.007994
0.006157
0.007858
0.007800
0.001982
0.002021
0.003651
0.003667
0.001347
0.001292
0.009089
0.009095
0.008953
0.009187
0.009238
0.008034
0.009170
0.004390
0.006998
0.005969
0.002603
0.001219
0.005482
0.003030
0.004433
0.001652
0.006214
0.007980
0.008759
0.008993
0.008998
0.008759
0.008764
0.009016
0.008977
0.004318
0.004337
0.001140
0.001159
0.004218
0.004216
0.006577
0.006554
0.008362
0.008389
0.005222
0.005196
0.003389
0.003367
0.007507
0.007633
0.008498
0.008450
0.007575
0.007576
0.006450
0.006451
0.001891
0.001866
0.003051
0.003038
0.005490
0.005490
0.008726
0.009051
0.007172
0.006876
0.002095
0.002077
0.001282
0.001272
0.007027
0.007034
0.009066
0.009053
0.003690
0.003687
0.009269
0.009225
0.009465
0.009384
0.009379
0.009402
0.009356
0.009303
0.009457
0.009377
0.009357
0.009363
0.009406
0.009264
0.009283
0.009354
0.009289
0.009401
0.009256
0.009443
0.009423
0.009448
0.009428
0.009366
0.009254
0.009227
0.009381
0.009446
0.009437
0.009342
0.009396
0.009310
0.009416
0.009319
0.009382
0.009355
0.009380
0.009272
0.009396
0.009271
0.009320
0.009407
0.009329
0.009255
0.009443
0.009426
0.009437
0.009383
0.009275
0.009336
0.009376
0.009258
0.007536
0.005777
0.009325
0.009273
0.009322
0.009038
0.009273
0.009191
0.009221
0.008951
0.009213
0.008905
0.009260
0.008996
0.009222
0.008920
0.008911
0.007652
0.005930
0.003766
0.001416
0.001266
0.003626
0.007851
0.007094
0.003024
0.003042
0.004176
0.005260
0.005256
0.006229
0.007877
0.008465
0.008490
0.007840
0.007110
0.008436
0.001876
0.001874
0.000818
0.001853
0.001798
0.001797
0.006241
0.008003
0.009294
0.009342
0.009356
0.009031
0.008888
0.001005
0.000901
0.005276
0.003082
0.007239
0.007226
0.007993
0.007276
0.008017
0.007988
0.002023
0.002028
0.007078
0.006213
0.009022
0.009085
0.008590
0.005251
0.009295
0.009322
0.009337
0.009328
0.001809
0.001806
0.007142
0.007196
0.003274
0.007335
0.006280
0.001868
0.001863
0.000799
0.003042
0.000948
0.003201
0.003227
0.003236
0.004370
0.002059
