# vtk DataFile Version 2.0
Unstructured Grid Example
ASCII
DATASET UNSTRUCTURED_GRID
POINTS 507 float
0.000051 0.500043 0.004389 
0.500083 0.000022 0.004422 
0.000058 -0.500006 0.004363 
-0.499976 0.000020 0.004345 
-0.000035 0.499980 3.995672 
0.499979 -0.000028 3.995671 
-0.000044 -0.500049 3.995597 
-0.500071 -0.000033 3.995577 
0.191400 0.461969 0.004395 
0.353623 0.353585 0.004411 
0.462006 0.191366 0.004414 
0.462007 -0.191330 0.004403 
0.353622 -0.353555 0.004395 
0.191401 -0.461934 0.004379 
-0.191291 -0.461939 0.004343 
-0.353517 -0.353540 0.004326 
-0.461912 -0.191324 0.004336 
-0.461910 0.191364 0.004341 
-0.353511 0.353589 0.004345 
-0.191295 0.461980 0.004373 
0.191311 0.461917 3.995679 
0.353520 0.353524 3.995689 
0.461914 0.191315 3.995685 
0.461915 -0.191379 3.995661 
0.353517 -0.353590 3.995650 
0.191302 -0.461985 3.995620 
-0.191393 -0.461986 3.995581 
-0.353620 -0.353589 3.995580 
-0.462012 -0.191373 3.995565 
-0.462003 0.191312 3.995600 
-0.353604 0.353532 3.995633 
-0.191386 0.461922 3.995658 
0.000034 0.500095 0.204336 
0.000016 0.500173 0.404181 
-0.000013 0.500246 0.603901 
-0.000020 0.500309 0.803535 
-0.000034 0.500364 1.003097 
-0.000035 0.500415 1.202574 
-0.000038 0.500458 1.401986 
-0.000031 0.500488 1.601344 
-0.000021 0.500510 1.800667 
-0.000007 0.500524 1.999997 
0.000010 0.500528 2.199307 
0.000026 0.500506 2.398647 
0.000033 0.500471 2.598022 
0.000032 0.500452 2.797421 
0.000021 0.500403 2.996919 
0.000032 0.500340 3.196483 
0.000013 0.500230 3.396136 
-0.000005 0.500176 3.595874 
-0.000020 0.500075 3.795724 
0.000035 -0.500072 0.204306 
0.000015 -0.500166 0.404153 
-0.000008 -0.500241 0.603895 
-0.000030 -0.500316 0.803524 
-0.000032 -0.500384 1.003083 
-0.000043 -0.500441 1.202562 
-0.000036 -0.500493 1.401989 
-0.000030 -0.500520 1.601351 
-0.000019 -0.500534 1.800687 
-0.000002 -0.500539 2.000010 
0.000011 -0.500521 2.199326 
0.000026 -0.500492 2.398660 
0.000034 -0.500448 2.598024 
0.000035 -0.500415 2.797427 
0.000035 -0.500365 2.996909 
0.000024 -0.500299 3.196463 
0.000006 -0.500231 3.396086 
-0.000003 -0.500170 3.595818 
-0.000024 -0.500103 3.795647 
0.500123 0.000013 0.204364 
0.500182 0.000012 0.404213 
0.500255 0.000002 0.603941 
0.500283 -0.000001 0.803548 
0.500355 -0.000012 1.003099 
0.500401 -0.000010 1.202582 
0.500441 -0.000022 1.401998 
0.500468 -0.000017 1.601333 
0.500501 -0.000012 1.800658 
0.500531 -0.000006 1.999982 
0.500537 0.000002 2.199297 
0.500519 0.000012 2.398645 
0.500488 0.000017 2.598022 
0.500464 0.000013 2.797426 
0.500408 0.000016 2.996942 
0.500320 0.000022 3.196498 
0.500244 0.000016 3.396110 
0.500173 -0.000004 3.595864 
0.500071 -0.000019 3.795723 
-0.500053 0.000017 0.204290 
-0.500157 0.000009 0.404131 
-0.500239 0.000004 0.603867 
-0.500321 -0.000008 0.803506 
-0.500404 -0.000012 1.003077 
-0.500465 -0.000019 1.202569 
-0.500507 -0.000022 1.401993 
-0.500528 -0.000019 1.601356 
-0.500535 -0.000012 1.800691 
-0.500539 -0.000007 2.000019 
-0.500515 -0.000001 2.199335 
-0.500481 0.000005 2.398666 
-0.500438 0.000014 2.598031 
-0.500409 0.000015 2.797442 
-0.500356 0.000028 2.996901 
-0.500288 0.000017 3.196449 
-0.500213 0.000015 3.396071 
-0.500187 0.000006 3.595784 
-0.500126 -0.000016 3.795625 
0.352701 -0.354770 0.684582 
0.352611 -0.354638 0.213056 
0.353856 -0.353911 1.479508 
0.353544 -0.354024 0.936782 
0.353891 -0.353932 1.680332 
0.353836 -0.353889 1.213656 
0.353918 -0.353937 1.921287 
0.353879 -0.353832 2.797446 
0.353936 -0.353898 2.392265 
0.353907 -0.353854 2.622427 
0.353933 -0.353924 2.159052 
0.353866 -0.353822 2.935376 
0.366055 -0.340966 3.346865 
0.353665 -0.353668 3.620714 
0.201588 -0.457667 3.802394 
0.457626 -0.201624 3.802438 
0.161993 -0.473179 3.644721 
0.473185 -0.162013 3.644765 
0.175026 -0.468518 0.322904 
0.467529 -0.177686 0.322867 
0.191473 -0.462363 1.205331 
0.462309 -0.191525 1.205335 
0.188798 -0.463563 2.036813 
0.463558 -0.188803 2.036798 
0.148788 -0.477830 2.585876 
0.477878 -0.148735 2.585869 
0.477312 -0.150249 3.003931 
0.150299 -0.477266 3.003908 
0.464123 -0.186563 3.468153 
0.186576 -0.464112 3.468136 
0.213049 -0.452668 3.225781 
0.472487 -0.164463 3.249329 
0.461244 -0.193650 0.549718 
0.191335 -0.462196 0.550103 
0.472750 -0.163658 0.802637 
0.162782 -0.473080 0.802642 
0.464119 -0.186963 1.060702 
0.186679 -0.464263 1.060692 
0.191483 -0.462389 1.350749 
0.462338 -0.191537 1.350752 
0.462367 -0.191554 1.552043 
0.191499 -0.462411 1.552044 
0.176978 -0.468196 1.783200 
0.468162 -0.177009 1.783188 
0.183172 -0.465779 2.394726 
0.465814 -0.183131 2.394714 
0.191535 -0.462313 2.796926 
0.462367 -0.191489 2.796927 
0.349486 -0.357860 0.461253 
0.353572 -0.353621 3.862197 
0.377033 -0.328912 3.140957 
0.280856 -0.414098 3.076500 
0.225102 -0.447049 2.236432 
0.447066 -0.225085 2.236423 
0.091040 -0.492184 1.903166 
0.492166 -0.091058 1.903150 
0.100252 -0.489923 3.897302 
0.489868 -0.100308 3.897367 
0.269416 -0.421782 2.500656 
0.421828 -0.269370 2.500645 
0.188467 -0.463183 0.125598 
0.462881 -0.189306 0.125609 
-0.353776 -0.353760 0.774117 
-0.364651 -0.342268 0.334800 
-0.353726 -0.353720 0.592977 
-0.353941 -0.353931 1.681015 
-0.353926 -0.353913 1.490139 
-0.353898 -0.353877 1.235524 
-0.353847 -0.353825 1.002976 
-0.353937 -0.353936 1.898318 
-0.353832 -0.353849 2.797444 
-0.353854 -0.353870 2.608410 
-0.353879 -0.353895 2.449623 
-0.353924 -0.353931 2.071376 
-0.353795 -0.353809 2.986507 
-0.353741 -0.353742 3.261243 
-0.364694 -0.342289 3.664724 
-0.353705 -0.353712 3.413809 
-0.470371 -0.169958 3.768080 
-0.470299 -0.169946 0.231198 
-0.252677 -0.431591 3.806407 
-0.258234 -0.428210 0.186743 
-0.207857 -0.455322 2.172665 
-0.455314 -0.207867 2.172668 
-0.148792 -0.477683 0.813365 
-0.477694 -0.148769 0.813360 
-0.165617 -0.472346 1.988509 
-0.472346 -0.165621 1.988514 
-0.176557 -0.468258 2.592431 
-0.468245 -0.176575 2.592436 
-0.462267 -0.191470 2.993260 
-0.191456 -0.462278 2.993260 
-0.460868 -0.194311 0.409425 
-0.213782 -0.452167 0.404748 
-0.460898 -0.194324 3.586790 
-0.183874 -0.465159 3.565307 
-0.462010 -0.191797 0.599789 
-0.191805 -0.462007 0.599801 
-0.462968 -0.189457 3.335712 
-0.187716 -0.463691 3.332119 
-0.190825 -0.462494 3.127725 
-0.462364 -0.191122 3.128320 
-0.465692 -0.183121 1.004119 
-0.183144 -0.465674 1.004131 
-0.455780 -0.206800 1.331386 
-0.206819 -0.455764 1.331387 
-0.462428 -0.191555 1.552258 
-0.191568 -0.462416 1.552257 
-0.187276 -0.464182 1.753698 
-0.464187 -0.187269 1.753699 
-0.462325 -0.191497 2.797431 
-0.191477 -0.462338 2.797425 
-0.387235 -0.316490 3.842722 
-0.387066 -0.316563 0.156832 
-0.353908 -0.353920 2.245649 
-0.472317 -0.165535 2.379478 
-0.165516 -0.472328 2.379475 
-0.269347 -0.421669 0.896927 
-0.421687 -0.269327 0.896922 
-0.113786 -0.486973 3.863458 
-0.116586 -0.486257 0.133607 
-0.445214 -0.228550 1.155323 
-0.228571 -0.445188 1.155328 
-0.111651 -0.487507 3.724155 
-0.119613 -0.485586 0.268186 
-0.491583 -0.091933 3.888696 
-0.491499 -0.091898 0.111054 
-0.353760 0.353743 0.707423 
-0.353712 0.353715 0.568927 
-0.342254 0.364681 0.330718 
-0.353930 0.353876 1.466835 
-0.353941 0.353898 1.677014 
-0.353827 0.353792 0.914812 
-0.353907 0.353849 1.260435 
-0.353834 0.353881 2.797418 
-0.353937 0.353918 1.920523 
-0.353921 0.353925 2.158913 
-0.353843 0.353893 2.621980 
-0.353885 0.353914 2.393171 
-0.353762 0.353803 3.165269 
-0.353795 0.353854 2.984683 
-0.343991 0.363080 3.641628 
-0.351306 0.356102 3.463713 
-0.194461 0.460730 3.806251 
-0.169929 0.470344 0.230543 
-0.419994 0.271461 3.841461 
-0.428614 0.257581 0.186019 
-0.154845 0.475570 3.653142 
-0.470046 0.170876 3.701728 
-0.207827 0.454995 3.468309 
-0.451662 0.214994 3.468775 
-0.445869 0.227150 1.004688 
-0.227199 0.445826 1.004705 
-0.183761 0.465351 0.817719 
-0.465372 0.183729 0.817698 
-0.463563 0.188794 2.036460 
-0.188800 0.463550 2.036449 
-0.477821 0.148766 2.585716 
-0.148717 0.477857 2.585711 
-0.460095 0.196609 3.070688 
-0.196252 0.460279 3.070667 
-0.194305 0.460881 0.409819 
-0.453226 0.211525 0.400266 
-0.467604 0.177734 0.601413 
-0.177742 0.467604 0.601437 
-0.459816 0.197514 1.156690 
-0.197571 0.459763 1.156697 
-0.465766 0.183147 2.394822 
-0.183120 0.465801 2.394804 
-0.462407 0.191500 1.347526 
-0.191556 0.462347 1.347522 
-0.462424 0.191510 1.549047 
-0.191564 0.462379 1.549045 
-0.177019 0.468169 1.782081 
-0.468200 0.176982 1.782095 
-0.453282 0.211986 2.836374 
-0.211898 0.453358 2.836357 
-0.462323 0.191136 3.262792 
-0.189251 0.463112 3.262723 
-0.316541 0.387120 0.155765 
-0.316417 0.387235 3.854557 
-0.352367 0.355087 3.325463 
-0.353872 0.353817 1.083022 
-0.091951 0.491751 0.706661 
-0.491757 0.091931 0.706633 
-0.447039 0.225088 2.236539 
-0.225079 0.447057 2.236525 
-0.421771 0.269397 2.500568 
-0.269352 0.421810 2.500562 
-0.492188 0.091039 1.902805 
-0.091062 0.492166 1.902785 
-0.098400 0.490261 3.898319 
-0.486302 0.116362 0.133186 
-0.485721 0.119039 0.266854 
-0.091874 0.491555 0.110924 
-0.483077 0.129342 3.867238 
0.354756 0.352709 0.681707 
0.354689 0.352590 0.213070 
0.353853 0.353879 1.387456 
0.353986 0.353574 0.916488 
0.353815 0.353832 1.119362 
0.353882 0.353898 1.660068 
0.353917 0.353920 1.916605 
0.353888 0.353876 2.797436 
0.353929 0.353913 2.392247 
0.353901 0.353885 2.622421 
0.353937 0.353931 2.157660 
0.353866 0.353856 2.935391 
0.340981 0.366055 3.346881 
0.353670 0.353669 3.620739 
0.457626 0.201589 3.802455 
0.201585 0.457627 3.802452 
0.473186 0.162001 3.644778 
0.161999 0.473186 3.644776 
0.468551 0.175012 0.322942 
0.177725 0.467515 0.322858 
0.191484 0.462363 1.395232 
0.462343 0.191510 1.395244 
0.188793 0.463553 2.034848 
0.463561 0.188796 2.034844 
0.477866 0.148767 2.585867 
0.148784 0.477853 2.585866 
0.150282 0.477302 3.003918 
0.477311 0.150281 3.003930 
0.186570 0.464109 3.468183 
0.464118 0.186587 3.468171 
0.462320 0.191498 1.251647 
0.191473 0.462332 1.251634 
0.191497 0.462386 1.541268 
0.462358 0.191519 1.541263 
0.452681 0.213042 3.225812 
0.164503 0.472497 3.249336 
[...]
POINT_DATA 507
SCALARS u float 1
LOOKUP_TABLE default
0.009236
0.009306
0.009181
0.009142
0.009106
0.009108
0.009265
0.009308
0.009249
0.009282
0.009289
0.009265
0.009249
0.009214
0.009139
0.009101
0.009124
0.009134
0.009143
0.009202
0.009092
0.009072
0.009078
0.009129
0.009153
0.009216
0.009299
0.009301
0.009334
0.009259
0.009189
0.009137
0.009125
0.008805
0.008224
0.007466
0.006562
0.005485
0.004288
0.003008
0.001766
0.001102
0.001833
0.003040
0.004278
0.005509
0.006538
0.007434
0.008144
0.008688
0.008999
0.009062
0.008745
0.008212
0.007445
0.006537
0.005470
0.004312
0.003046
0.001831
0.001135
0.001792
0.003005
0.004264
0.005485
0.006550
0.007469
0.008250
0.008806
0.009161
0.009186
0.008872
0.008309
0.007489
0.006564
0.005499
0.004306
0.002973
0.001740
0.001117
0.001862
0.003053
0.004287
0.005503
0.006492
0.007400
0.008202
0.008710
0.009000
0.009026
0.008698
0.008152
0.007407
0.006529
0.005494
0.004327
0.003061
0.001839
0.001135
0.001769
0.002984
0.004245
0.005450
0.006564
0.007497
0.008279
0.008878
0.009209
0.007996
0.009139
0.003772
0.006855
0.002515
0.005435
0.001241
0.005448
0.003009
0.004417
0.001619
0.006237
0.008014
0.008812
0.009122
0.009030
0.008879
0.008788
0.008935
0.008996
0.005452
0.005450
0.001156
0.001158
0.004194
0.004223
0.006550
0.006590
0.008426
0.008462
0.007571
0.007644
0.008433
0.008414
0.007558
0.007451
0.006262
0.006230
0.004607
0.004600
0.003318
0.003332
0.001911
0.001864
0.003005
0.003040
0.005467
0.005475
0.008679
0.009129
0.007200
0.006910
0.002029
0.002054
0.001320
0.001275
0.009217
0.009080
0.003662
0.003691
0.009195
0.009241
0.007523
0.008810
0.008197
0.002591
0.003766
0.005290
0.006528
0.001382
0.005446
0.004321
0.003313
0.001213
0.006514
0.007780
0.009020
0.008344
0.009191
0.008994
0.009219
0.009031
0.001629
0.001620
0.007381
0.007370
0.001141
0.001145
0.004219
0.004204
0.006552
0.006553
0.008643
0.008688
0.008860
0.008762
0.008171
0.008197
0.008034
0.008046
0.007202
0.007208
0.006520
0.006544
0.004750
0.004748
0.003389
0.003384
0.002128
0.002132
0.005476
0.005489
0.009252
0.009045
0.002017
0.002853
0.002862
0.007008
0.006997
0.009243
0.009113
0.005731
0.005736
0.009071
0.008957
0.009293
0.009095
0.007847
0.008301
0.008864
0.003905
0.002572
0.006996
0.005152
0.005508
0.001259
0.001579
0.004441
0.002966
0.007357
0.006526
0.008855
0.008420
0.009057
0.009076
0.009168
0.009050
0.008823
0.009020
0.008428
0.008478
0.006531
0.006562
0.007422
0.007378
0.001146
0.001132
0.004188
0.004208
0.006904
0.006925
0.008738
0.008719
0.008167
0.008217
0.005742
0.005749
0.002967
0.003021
0.004652
0.004628
0.003379
0.003362
0.001902
0.001945
0.005712
0.005753
0.007748
0.007721
0.009101
0.009133
0.007994
0.006157
0.007858
0.007800
0.001982
0.002021
0.003651
0.003667
0.001347
0.001292
0.009089
0.009095
0.008953
0.009187
0.009238
0.008034
0.009170
0.004390
0.006998
0.005969
0.002603
0.001219
0.005482
0.003030
0.004433
0.001652
0.006214
0.007980
0.008759
0.008993
0.008998
0.008759
0.008764
0.009016
0.008977
0.004318
0.004337
0.001140
0.001159
0.004218
0.004216
0.006577
0.006554
0.008362
0.008389
0.005222
0.005196
0.003389
0.003367
0.007507
0.007633
0.008498
0.008450
0.007575
0.007576
0.006450
0.006451
0.001891
0.001866
0.003051
0.003038
0.005490
0.005490
0.008726
0.009051
0.007172
0.006876
0.002095
0.002077
0.001282
0.001272
0.007027
0.007034
0.009066
0.009053
0.003690
0.003687
0.009269
0.009225
0.009465
0.009384
0.009379
0.009402
0.009356
0.009303
0.009457
0.009377
0.009357
0.009363
0.009406
0.009264
0.009283
0.009354
0.009289
0.009401
0.009256
0.009443
0.009423
0.009448
0.009428
0.009366
0.009254
0.009227
0.009381
0.009446
0.009437
0.009342
0.009396
0.009310
0.009416
0.009319
0.009382
0.009355
0.009380
0.009272
0.009396
0.009271
0.009320
0.009407
0.009329
0.009255
0.009443
0.009426
0.009437
0.009383
0.009275
0.009336
0.009376
0.009258
0.007536
0.005777
0.009325
0.009273
0.009322
0.009038
0.009273
0.009191
0.009221
0.008951
0.009213
0.008905
0.009260
0.008996
0.009222
0.008920
0.008911
0.007652
0.005930
0.003766
0.001416
0.001266
0.003626
0.007851
0.007094
0.003024
0.003042
0.004176
0.005260
0.005256
0.006229
0.007877
0.008465
0.008490
0.007840
0.007110
0.008436
0.001876
0.001874
0.000818
0.001853
0.001798
0.001797
0.006241
0.008003
0.009294
0.009342
0.009356
0.009031
0.008888
0.001005
0.000901
0.005276
0.003082
0.007239
0.007226
0.007993
0.007276
0.008017
0.007988
0.002023
0.002028
0.007078
0.006213
0.009022
0.009085
0.008590
0.005251
0.009295
0.009322
0.009337
0.009328
0.001809
0.001806
0.007142
0.007196
0.003274
0.007335
0.006280
0.001868
0.001863
0.000799
0.003042
0.000948
0.003201
0.003227
0.003236
0.004370
0.002059
