# vtk DataFile Version 2.0
Unstructured Grid Example
ASCII
DATASET UNSTRUCTURED_GRID
POINTS 507 float
-0.000525 0.499559 -0.044875 
0.499152 -0.000223 -0.045210 
-0.000589 -0.499938 -0.044606 
-0.500248 -0.000209 -0.044418 
0.000362 0.500201 4.044243 
0.500210 0.000282 4.044254 
0.000453 -0.499503 4.045012 
-0.499277 0.000334 4.045223 
0.190746 0.461639 -0.044935 
0.352839 0.353227 -0.045094 
0.461260 0.191091 -0.045129 
0.461248 -0.191464 -0.045012 
0.352852 -0.353540 -0.044937 
0.190734 -0.462001 -0.044766 
-0.191859 -0.461943 -0.044402 
-0.353925 -0.353690 -0.044223 
-0.462228 -0.191520 -0.044332 
-0.462240 0.191109 -0.044379 
-0.353983 0.353186 -0.044424 
-0.191821 0.461525 -0.044709 
0.191651 0.462177 4.044175 
0.353890 0.353849 4.044078 
0.462203 0.191613 4.044110 
0.462193 -0.190966 4.044356 
0.353922 -0.353179 4.044471 
0.191744 -0.461481 4.044778 
-0.190816 -0.461468 4.045180 
-0.352875 -0.353193 4.045187 
-0.461205 -0.191021 4.045346 
-0.461290 0.191645 4.044985 
-0.353040 0.353771 4.044648 
-0.190889 0.462119 4.044394 
-0.000343 0.499032 0.155672 
-0.000161 0.498234 0.357252 
0.000133 0.497489 0.560116 
0.000202 0.496837 0.763862 
0.000352 0.496276 0.968337 
0.000359 0.495762 1.173689 
0.000392 0.495318 1.379699 
0.000314 0.495007 1.586264 
0.000215 0.494786 1.793185 
0.000074 0.494646 2.000027 
-0.000106 0.494603 2.207082 
-0.000270 0.494822 2.413834 
-0.000340 0.495189 2.620219 
-0.000326 0.495375 2.826362 
-0.000219 0.495883 3.031499 
-0.000328 0.496527 3.235955 
-0.000134 0.497645 3.439504 
0.000055 0.498203 3.642178 
0.000207 0.499238 3.843720 
-0.000354 -0.499259 0.155973 
-0.000152 -0.498301 0.357540 
0.000082 -0.497541 0.560176 
0.000306 -0.496771 0.763971 
0.000332 -0.496072 0.968482 
0.000435 -0.495494 1.173810 
0.000368 -0.494958 1.379665 
0.000308 -0.494689 1.586190 
0.000192 -0.494538 1.792978 
0.000021 -0.494488 1.999896 
-0.000116 -0.494670 2.206886 
-0.000267 -0.494973 2.413704 
-0.000343 -0.495415 2.620203 
-0.000362 -0.495756 2.826309 
-0.000355 -0.496269 3.031606 
-0.000247 -0.496944 3.236165 
-0.000059 -0.497636 3.440015 
0.000028 -0.498263 3.642752 
0.000245 -0.498942 3.844501 
0.498742 -0.000133 0.155384 
0.498139 -0.000123 0.356931 
0.497395 -0.000023 0.559712 
0.497107 0.000012 0.763728 
0.496366 0.000127 0.968313 
0.495899 0.000105 1.173598 
0.495494 0.000220 1.379571 
0.495213 0.000171 1.586370 
0.494881 0.000123 1.793274 
0.494575 0.000058 2.000186 
0.494507 -0.000019 2.207190 
0.494697 -0.000125 2.413856 
0.495010 -0.000172 2.620222 
0.495259 -0.000138 2.826314 
0.495826 -0.000164 3.031267 
0.496728 -0.000220 3.235806 
0.497509 -0.000159 3.439775 
0.498232 0.000043 3.642285 
0.499274 0.000197 3.843727 
-0.499460 -0.000173 0.156145 
-0.498390 -0.000094 0.357766 
-0.497557 -0.000042 0.560466 
-0.496714 0.000087 0.764158 
-0.495875 0.000123 0.968544 
-0.495247 0.000199 1.173731 
-0.494819 0.000223 1.379625 
-0.494604 0.000195 1.586141 
-0.494529 0.000123 1.792935 
-0.494491 0.000072 1.999803 
-0.494731 0.000006 2.206794 
-0.495080 -0.000050 2.413637 
-0.495522 -0.000148 2.620132 
-0.495818 -0.000149 2.826151 
-0.496361 -0.000281 3.031685 
-0.497055 -0.000177 3.236307 
-0.497824 -0.000156 3.440167 
-0.498086 -0.000062 3.643098 
-0.498714 0.000164 3.844730 
0.350677 -0.352672 0.642031 
0.351516 -0.354107 0.164319 
0.350459 -0.349902 1.460086 
0.351233 -0.351152 0.900402 
0.350102 -0.349681 1.668186 
0.350665 -0.350118 1.185089 
0.349825 -0.349630 1.918366 
0.350222 -0.350703 2.826108 
0.349645 -0.350027 2.407239 
0.349941 -0.350479 2.645404 
0.349675 -0.349763 2.165310 
0.350355 -0.350806 2.968321 
0.363827 -0.339171 3.389516 
0.352414 -0.352378 3.667685 
0.201421 -0.456552 3.851043 
0.456971 -0.201055 3.850597 
0.161612 -0.471646 3.692061 
0.471585 -0.161403 3.691610 
0.174218 -0.467103 0.275272 
0.465800 -0.177309 0.274913 
0.189997 -0.457611 1.176676 
0.458165 -0.189463 1.176635 
0.186560 -0.457990 2.038216 
0.458046 -0.186505 2.038377 
0.146833 -0.473045 2.607646 
0.472555 -0.147373 2.607716 
0.472934 -0.149149 3.038578 
0.148639 -0.473402 3.038811 
0.461824 -0.185784 3.513037 
0.185652 -0.461941 3.513213 
0.211330 -0.449779 3.266024 
0.469321 -0.163582 3.289972 
0.458684 -0.192615 0.504816 
0.190282 -0.459790 0.505298 
0.469853 -0.162552 0.762441 
0.162000 -0.469759 0.763042 
0.460468 -0.185161 1.027545 
0.185459 -0.460048 1.027748 
0.189898 -0.457342 1.326752 
0.457864 -0.189343 1.326728 
0.457574 -0.189169 1.535174 
0.189730 -0.457119 1.535169 
0.175120 -0.462556 1.774918 
0.462902 -0.174806 1.775040 
0.180812 -0.460654 2.409728 
0.460294 -0.181229 2.409846 
0.189365 -0.458120 2.825705 
0.457567 -0.189837 2.825688 
0.347810 -0.356300 0.415014 
0.353367 -0.352860 3.910886 
0.373997 -0.326643 3.179176 
0.278342 -0.410958 3.113141 
0.222310 -0.441875 2.245522 
0.441701 -0.222487 2.245614 
0.090070 -0.486278 1.899456 
0.486466 -0.089889 1.899623 
0.100476 -0.489023 3.946460 
0.489575 -0.099907 3.945800 
0.266161 -0.417403 2.519411 
0.416936 -0.266637 2.519519 
0.187710 -0.462786 0.076557 
0.461759 -0.189213 0.076329 
-0.351277 -0.351446 0.734131 
-0.363770 -0.341280 0.287825 
-0.351788 -0.351851 0.549333 
-0.349595 -0.349695 1.668594 
-0.349740 -0.349876 1.470911 
-0.350027 -0.350249 1.207807 
-0.350551 -0.350777 0.968444 
-0.349636 -0.349638 1.894149 
-0.350701 -0.350528 2.826131 
-0.350480 -0.350319 2.630931 
-0.350221 -0.350065 2.466483 
-0.349760 -0.349696 2.073948 
-0.351083 -0.350937 3.021030 
-0.351636 -0.351623 3.302634 
-0.363332 -0.341063 3.712806 
-0.352001 -0.351935 3.458252 
-0.468980 -0.169365 3.817085 
-0.469631 -0.169711 0.183228 
-0.251799 -0.430584 3.855568 
-0.258165 -0.427616 0.138572 
-0.205495 -0.449960 2.179085 
-0.450041 -0.205387 2.179051 
-0.147427 -0.474346 0.774161 
-0.474232 -0.147667 0.774214 
-0.163611 -0.466634 1.987872 
-0.466632 -0.163575 1.987815 
-0.175072 -0.463570 2.614391 
-0.463700 -0.174887 2.614332 
-0.458598 -0.190029 3.027989 
-0.190174 -0.458483 3.027985 
-0.459241 -0.193660 0.363352 
-0.213140 -0.450507 0.358437 
-0.458938 -0.193526 3.634004 
-0.183115 -0.463257 3.612001 
-0.459530 -0.190775 0.556284 
-0.190695 -0.459557 0.556160 
-0.460526 -0.188512 3.378490 
-0.186759 -0.461092 3.374948 
-0.189695 -0.459142 3.165981 
-0.459122 -0.189905 3.166614 
-0.461488 -0.181469 0.969633 
-0.181234 -0.461677 0.969508 
-0.450656 -0.204476 1.306681 
-0.204283 -0.450820 1.306677 
-0.456952 -0.189161 1.535196 
-0.189031 -0.457071 1.535204 
-0.184886 -0.458646 1.744080 
-0.458600 -0.184959 1.744067 
-0.458002 -0.189751 2.826266 
-0.189956 -0.457863 2.826321 
-0.386147 -0.315757 3.892057 
-0.386853 -0.316260 0.108581 
-0.349932 -0.349809 2.254765 
-0.467182 -0.163733 2.393693 
-0.163922 -0.467066 2.393719 
-0.267013 -0.418462 0.859757 
-0.418279 -0.267221 0.859813 
-0.113247 -0.486062 3.912751 
-0.116901 -0.485746 0.085000 
-0.440689 -0.226296 1.125175 
-0.226073 -0.440961 1.125127 
-0.111170 -0.486126 3.772522 
-0.119626 -0.484413 0.220422 
-0.490448 -0.091580 3.938253 
-0.491289 -0.091994 0.062536 
-0.351440 0.351614 0.665681 
-0.351929 0.351899 0.524719 
-0.341417 0.363461 0.283459 
-0.349704 0.350258 1.446761 
-0.349588 0.350028 1.664594 
-0.350753 0.351116 0.877717 
-0.349941 0.350535 1.233441 
-0.350681 0.350204 2.826400 
-0.349629 0.349827 1.917391 
-0.349800 0.349759 2.164962 
-0.350595 0.350085 2.645138 
-0.350168 0.349866 2.408009 
-0.351416 0.351003 3.204342 
-0.351083 0.350476 3.019225 
-0.342755 0.361831 3.688828 
-0.349661 0.354190 3.508556 
-0.193855 0.459917 3.854552 
-0.169881 0.469176 0.182145 
-0.418992 0.271235 3.890356 
-0.428248 0.256934 0.137751 
-0.154213 0.474079 3.700181 
-0.468522 0.170419 3.749819 
-0.206969 0.452766 3.513202 
-0.449526 0.213711 3.513930 
-0.441769 0.225415 0.970138 
-0.224917 0.442203 0.969964 
-0.182173 0.462127 0.778292 
-0.461909 0.182496 0.778511 
-0.457995 0.186599 2.037699 
-0.186531 0.458123 2.037808 
-0.473139 0.147055 2.607493 
-0.147558 0.472770 2.607541 
-0.456715 0.194745 3.107311 
-0.194915 0.456317 3.107368 
-0.193728 0.459111 0.363245 
-0.451718 0.210605 0.353788 
-0.465066 0.176751 0.557935 
-0.176665 0.465059 0.557694 
-0.455094 0.195918 1.126469 
-0.195338 0.455638 1.126391 
-0.460792 0.181072 2.409706 
-0.181349 0.460427 2.409893 
-0.457168 0.189723 1.323333 
-0.189153 0.457771 1.323379 
-0.456990 0.189617 1.531963 
-0.189072 0.457449 1.531984 
-0.174705 0.462835 1.773763 
-0.462518 0.175083 1.773624 
-0.449331 0.209782 2.866507 
-0.210196 0.448776 2.866654 
-0.459591 0.189660 3.304008 
-0.188355 0.459976 3.303780 
-0.316477 0.386296 0.107223 
-0.315646 0.386838 3.903268 
-0.350626 0.352872 3.368012 
-0.350294 0.350857 1.050507 
-0.091188 0.488762 0.664858 
-0.488709 0.091389 0.665141 
-0.441978 0.222463 2.245445 
-0.222550 0.441795 2.245588 
-0.417515 0.266357 2.519325 
-0.266813 0.417120 2.519384 
-0.486239 0.090080 1.898895 
-0.089846 0.486466 1.899103 
-0.097949 0.489911 3.946801 
-0.486044 0.116001 0.084673 
-0.484741 0.118547 0.219109 
-0.092235 0.490719 0.061924 
-0.481980 0.129413 3.916505 
0.352819 0.350593 0.638947 
0.353582 0.351732 0.164177 
0.350495 0.350223 1.364569 
0.351548 0.350924 0.879330 
0.350880 0.350710 1.087809 
0.350197 0.350032 1.647253 
0.349835 0.349808 1.913648 
0.350135 0.350256 2.826212 
0.349718 0.349876 2.407322 
0.350003 0.350164 2.645445 
0.349634 0.349695 2.164080 
0.350361 0.350458 2.968175 
0.339021 0.363827 3.389344 
0.352362 0.352376 3.667429 
0.456972 0.201413 3.850424 
0.201446 0.456958 3.850448 
0.471574 0.161521 3.691472 
0.161551 0.471576 3.691494 
0.466769 0.174359 0.274883 
0.176909 0.465950 0.275005 
0.189892 0.457616 1.372748 
0.457815 0.189621 1.372632 
0.186608 0.458092 2.036383 
0.458011 0.186579 2.036424 
0.472672 0.147043 2.607691 
0.146871 0.472811 2.607698 
0.148807 0.473039 3.038711 
0.472946 0.148825 3.038589 
0.185720 0.461964 3.512728 
0.461876 0.185542 3.512853 
0.458054 0.189746 1.224175 
0.189999 0.457929 1.224308 
0.189752 0.457380 1.523987 
0.457669 0.189526 1.524040 
0.449646 0.211407 3.265709 
[...]
POINT_DATA 507
SCALARS u float 1
LOOKUP_TABLE default
0.009236
0.009306
0.009181
0.009142
0.009106
0.009108
0.009265
0.009308
0.009249
0.009282
0.009289
0.009265
0.009249
0.009214
0.009139
0.009101
0.009124
0.009134
0.009143
0.009202
0.009092
0.009072
0.009078
0.009129
0.009153
0.009216
0.009299
0.009301
0.009334
0.009259
0.009189
0.009137
0.009125
0.008805
0.008224
0.007466
0.006562
0.005485
0.004288
0.003008
0.001766
0.001102
0.001833
0.003040
0.004278
0.005509
0.006538
0.007434
0.008144
0.008688
0.008999
0.009062
0.008745
0.008212
0.007445
0.006537
0.005470
0.004312
0.003046
0.001831
0.001135
0.001792
0.003005
0.004264
0.005485
0.006550
0.007469
0.008250
0.008806
0.009161
0.009186
0.008872
0.008309
0.007489
0.006564
0.005499
0.004306
0.002973
0.001740
0.001117
0.001862
0.003053
0.004287
0.005503
0.006492
0.007400
0.008202
0.008710
0.009000
0.009026
0.008698
0.008152
0.007407
0.006529
0.005494
0.004327
0.003061
0.001839
0.001135
0.001769
0.002984
0.004245
0.005450
0.006564
0.007497
0.008279
0.008878
0.009209
0.007996
0.009139
0.003772
0.006855
0.002515
0.005435
0.001241
0.005448
0.003009
0.004417
0.001619
0.006237
0.008014
0.008812
0.009122
0.009030
0.008879
0.008788
0.008935
0.008996
0.005452
0.005450
0.001156
0.001158
0.004194
0.004223
0.006550
0.006590
0.008426
0.008462
0.007571
0.007644
0.008433
0.008414
0.007558
0.007451
0.006262
0.006230
0.004607
0.004600
0.003318
0.003332
0.001911
0.001864
0.003005
0.003040
0.005467
0.005475
0.008679
0.009129
0.007200
0.006910
0.002029
0.002054
0.001320
0.001275
0.009217
0.009080
0.003662
0.003691
0.009195
0.009241
0.007523
0.008810
0.008197
0.002591
0.003766
0.005290
0.006528
0.001382
0.005446
0.004321
0.003313
0.001213
0.006514
0.007780
0.009020
0.008344
0.009191
0.008994
0.009219
0.009031
0.001629
0.001620
0.007381
0.007370
0.001141
0.001145
0.004219
0.004204
0.006552
0.006553
0.008643
0.008688
0.008860
0.008762
0.008171
0.008197
0.008034
0.008046
0.007202
0.007208
0.006520
0.006544
0.004750
0.004748
0.003389
0.003384
0.002128
0.002132
0.005476
0.005489
0.009252
0.009045
0.002017
0.002853
0.002862
0.007008
0.006997
0.009243
0.009113
0.005731
0.005736
0.009071
0.008957
0.009293
0.009095
0.007847
0.008301
0.008864
0.003905
0.002572
0.006996
0.005152
0.005508
0.001259
0.001579
0.004441
0.002966
0.007357
0.006526
0.008855
0.008420
0.009057
0.009076
0.009168
0.009050
0.008823
0.009020
0.008428
0.008478
0.006531
0.006562
0.007422
0.007378
0.001146
0.001132
0.004188
0.004208
0.006904
0.006925
0.008738
0.008719
0.008167
0.008217
0.005742
0.005749
0.002967
0.003021
0.004652
0.004628
0.003379
0.003362
0.001902
0.001945
0.005712
0.005753
0.007748
0.007721
0.009101
0.009133
0.007994
0.006157
0.007858
0.007800
0.001982
0.002021
0.003651
0.003667
0.001347
0.001292
0.009089
0.009095
0.008953
0.009187
0.009238
0.008034
0.009170
0.004390
0.006998
0.005969
0.002603
0.001219
0.005482
0.003030
0.004433
0.001652
0.006214
0.007980
0.008759
0.008993
0.008998
0.008759
0.008764
0.009016
0.008977
0.004318
0.004337
0.001140
0.001159
0.004218
0.004216
0.006577
0.006554
0.008362
0.008389
0.005222
0.005196
0.003389
0.003367
0.007507
0.007633
0.008498
0.008450
0.007575
0.007576
0.006450
0.006451
0.001891
0.001866
0.003051
0.003038
0.005490
0.005490
0.008726
0.009051
0.007172
0.006876
0.002095
0.002077
0.001282
0.001272
0.007027
0.007034
0.009066
0.009053
0.003690
0.003687
0.009269
0.009225
0.009465
0.009384
0.009379
0.009402
0.009356
0.009303
0.009457
0.009377
0.009357
0.009363
0.009406
0.009264
0.009283
0.009354
0.009289
0.009401
0.009256
0.009443
0.009423
0.009448
0.009428
0.009366
0.009254
0.009227
0.009381
0.009446
0.009437
0.009342
0.009396
0.009310
0.009416
0.009319
0.009382
0.009355
0.009380
0.009272
0.009396
0.009271
0.009320
0.009407
0.009329
0.009255
0.009443
0.009426
0.009437
0.009383
0.009275
0.009336
0.009376
0.009258
0.007536
0.005777
0.009325
0.009273
0.009322
0.009038
0.009273
0.009191
0.009221
0.008951
0.009213
0.008905
0.009260
0.008996
0.009222
0.008920
0.008911
0.007652
0.005930
0.003766
0.001416
0.001266
0.003626
0.007851
0.007094
0.003024
0.003042
0.004176
0.005260
0.005256
0.006229
0.007877
0.008465
0.008490
0.007840
0.007110
0.008436
0.001876
0.001874
0.000818
0.001853
0.001798
0.001797
0.006241
0.008003
0.009294
0.009342
0.009356
0.009031
0.008888
0.001005
0.000901
0.005276
0.003082
0.007239
0.007226
0.007993
0.007276
0.008017
0.007988
0.002023
0.002028
0.007078
0.006213
0.009022
0.009085
0.008590
0.005251
0.009295
0.009322
0.009337
0.009328
0.001809
0.001806
0.007142
0.007196
0.003274
0.007335
0.006280
0.001868
0.001863
0.000799
0.003042
0.000948
0.003201
0.003227
0.003236
0.004370
0.002059
