# vtk DataFile Version 2.0
Unstructured Grid Example
ASCII
DATASET UNSTRUCTURED_GRID
POINTS 507 float
-0.000535 0.499550 -0.045707 
0.499136 -0.000228 -0.046047 
-0.000600 -0.499937 -0.045433 
-0.500252 -0.000213 -0.045241 
0.000369 0.500205 4.045063 
0.500214 0.000287 4.045074 
0.000462 -0.499494 4.045846 
-0.499263 0.000340 4.046061 
0.190735 0.461633 -0.045768 
0.352825 0.353221 -0.045929 
0.461247 0.191086 -0.045965 
0.461235 -0.191466 -0.045846 
0.352839 -0.353540 -0.045769 
0.190722 -0.462002 -0.045596 
-0.191869 -0.461943 -0.045225 
-0.353932 -0.353692 -0.045042 
-0.462233 -0.191524 -0.045153 
-0.462245 0.191105 -0.045202 
-0.353991 0.353179 -0.045247 
-0.191830 0.461517 -0.045537 
0.191657 0.462182 4.044993 
0.353896 0.353854 4.044895 
0.462207 0.191618 4.044928 
0.462198 -0.190959 4.045178 
0.353929 -0.353172 4.045296 
0.191752 -0.461473 4.045608 
-0.190806 -0.461459 4.046017 
-0.352863 -0.353186 4.046024 
-0.461191 -0.191015 4.046186 
-0.461278 0.191651 4.045819 
-0.353031 0.353775 4.045475 
-0.190881 0.462122 4.045217 
-0.000350 0.499014 0.154851 
-0.000164 0.498201 0.356460 
0.000135 0.497442 0.559377 
0.000206 0.496778 0.763192 
0.000358 0.496207 0.967750 
0.000366 0.495683 1.173201 
0.000399 0.495232 1.379323 
0.000320 0.494915 1.586010 
0.000219 0.494690 1.793059 
0.000076 0.494547 2.000027 
-0.000108 0.494503 2.207214 
-0.000275 0.494726 2.414090 
-0.000347 0.495100 2.620594 
-0.000332 0.495289 2.826851 
-0.000223 0.495806 3.032083 
-0.000334 0.496463 3.236621 
-0.000136 0.497602 3.440236 
0.000056 0.498169 3.642960 
0.000211 0.499223 3.844531 
-0.000360 -0.499245 0.155157 
-0.000155 -0.498269 0.356753 
0.000083 -0.497495 0.559438 
0.000311 -0.496711 0.763303 
0.000338 -0.495999 0.967898 
0.000443 -0.495411 1.173324 
0.000375 -0.494864 1.379288 
0.000314 -0.494590 1.585934 
0.000195 -0.494437 1.792848 
0.000021 -0.494386 1.999894 
-0.000118 -0.494571 2.207013 
-0.000272 -0.494880 2.413958 
-0.000350 -0.495330 2.620577 
-0.000369 -0.495677 2.826797 
-0.000361 -0.496200 3.032192 
-0.000252 -0.496887 3.236835 
-0.000060 -0.497592 3.440757 
0.000028 -0.498230 3.643544 
0.000249 -0.498922 3.845326 
0.498719 -0.000135 0.154557 
0.498105 -0.000125 0.356133 
0.497347 -0.000024 0.558965 
0.497054 0.000013 0.763056 
0.496299 0.000130 0.967726 
0.495823 0.000107 1.173109 
0.495410 0.000224 1.379193 
0.495125 0.000174 1.586117 
0.494786 0.000125 1.793150 
0.494475 0.000059 2.000189 
0.494405 -0.000019 2.207323 
0.494599 -0.000128 2.414113 
0.494917 -0.000175 2.620597 
0.495171 -0.000140 2.826801 
0.495748 -0.000167 3.031846 
0.496668 -0.000224 3.236470 
0.497463 -0.000162 3.440512 
0.498200 0.000044 3.643069 
0.499261 0.000201 3.844537 
-0.499450 -0.000176 0.155332 
-0.498360 -0.000096 0.356983 
-0.497512 -0.000043 0.559733 
-0.496653 0.000088 0.763494 
-0.495798 0.000126 0.967961 
-0.495159 0.000202 1.173244 
-0.494723 0.000227 1.379247 
-0.494504 0.000198 1.585885 
-0.494427 0.000125 1.792804 
-0.494389 0.000074 1.999799 
-0.494633 0.000007 2.206920 
-0.494989 -0.000050 2.413889 
-0.495439 -0.000150 2.620505 
-0.495741 -0.000152 2.826636 
-0.496293 -0.000286 3.032272 
-0.497000 -0.000181 3.236979 
-0.497784 -0.000159 3.440911 
-0.498050 -0.000063 3.643896 
-0.498690 0.000167 3.845559 
0.350643 -0.352637 0.641313 
0.351498 -0.354098 0.163496 
0.350402 -0.349834 1.459758 
0.351194 -0.351104 0.899788 
0.350038 -0.349609 1.667981 
0.350612 -0.350054 1.184606 
0.349756 -0.349557 1.918317 
0.350161 -0.350650 2.826592 
0.349573 -0.349962 2.407491 
0.349874 -0.350422 2.645792 
0.349603 -0.349692 2.165416 
0.350296 -0.350755 2.968877 
0.363789 -0.339141 3.390236 
0.352393 -0.352356 3.668477 
0.201419 -0.456533 3.851864 
0.456960 -0.201045 3.851410 
0.161605 -0.471620 3.692860 
0.471558 -0.161393 3.692400 
0.174204 -0.467079 0.274468 
0.465771 -0.177303 0.274103 
0.189973 -0.457531 1.176193 
0.458095 -0.189428 1.176150 
0.186522 -0.457896 2.038240 
0.457953 -0.186467 2.038404 
0.146800 -0.472964 2.608013 
0.472466 -0.147350 2.608084 
0.472860 -0.149131 3.039163 
0.148611 -0.473337 3.039400 
0.461785 -0.185771 3.513794 
0.185636 -0.461904 3.513974 
0.211301 -0.449730 3.266704 
0.469267 -0.163567 3.290658 
0.458641 -0.192597 0.504058 
0.190265 -0.459750 0.504542 
0.469804 -0.162533 0.761762 
0.161987 -0.469703 0.762373 
0.460406 -0.185130 1.026985 
0.185438 -0.459977 1.027192 
0.189872 -0.457257 1.326347 
0.457788 -0.189306 1.326322 
0.457493 -0.189128 1.534889 
0.189701 -0.457030 1.534884 
0.175088 -0.462461 1.774778 
0.462814 -0.174769 1.774902 
0.180772 -0.460567 2.409981 
0.460201 -0.181197 2.410101 
0.189329 -0.458049 2.826191 
0.457486 -0.189809 2.826174 
0.347782 -0.356274 0.414234 
0.353364 -0.352847 3.911708 
0.373946 -0.326604 3.179822 
0.278300 -0.410905 3.113759 
0.222263 -0.441788 2.245675 
0.441611 -0.222443 2.245769 
0.090053 -0.486179 1.899393 
0.486370 -0.089869 1.899564 
0.100480 -0.489007 3.947290 
0.489571 -0.099900 3.946617 
0.266106 -0.417329 2.519728 
0.416854 -0.266591 2.519838 
0.187697 -0.462779 0.075729 
0.461740 -0.189211 0.075497 
-0.351234 -0.351407 0.733456 
-0.363755 -0.341264 0.287032 
-0.351756 -0.351820 0.548596 
-0.349522 -0.349624 1.668384 
-0.349669 -0.349807 1.470586 
-0.349962 -0.350188 1.207339 
-0.350495 -0.350726 0.967861 
-0.349564 -0.349566 1.894078 
-0.350648 -0.350472 2.826616 
-0.350423 -0.350259 2.631312 
-0.350159 -0.350001 2.466768 
-0.349689 -0.349624 2.073991 
-0.351038 -0.350888 3.021613 
-0.351601 -0.351588 3.303333 
-0.363309 -0.341043 3.713618 
-0.351973 -0.351905 3.459003 
-0.468957 -0.169355 3.817913 
-0.469620 -0.169707 0.182418 
-0.251784 -0.430567 3.856398 
-0.258164 -0.427606 0.137759 
-0.205455 -0.449870 2.179193 
-0.449952 -0.205345 2.179158 
-0.147404 -0.474290 0.773499 
-0.474173 -0.147649 0.773554 
-0.163577 -0.466538 1.987861 
-0.466536 -0.163540 1.987804 
-0.175047 -0.463491 2.614762 
-0.463623 -0.174859 2.614702 
-0.458536 -0.190005 3.028575 
-0.190152 -0.458419 3.028571 
-0.459213 -0.193649 0.362574 
-0.213129 -0.450479 0.357656 
-0.458905 -0.193513 3.634801 
-0.183102 -0.463224 3.612789 
-0.459489 -0.190757 0.555549 
-0.190676 -0.459516 0.555423 
-0.460484 -0.188496 3.379212 
-0.186743 -0.461048 3.375670 
-0.189676 -0.459086 3.166627 
-0.459067 -0.189885 3.167260 
-0.461417 -0.181442 0.969051 
-0.181202 -0.461610 0.968923 
-0.450570 -0.204437 1.306264 
-0.204240 -0.450736 1.306260 
-0.456860 -0.189121 1.534908 
-0.188989 -0.456980 1.534916 
-0.184846 -0.458552 1.743918 
-0.458506 -0.184920 1.743904 
-0.457929 -0.189721 2.826753 
-0.189930 -0.457788 2.826809 
-0.386128 -0.315744 3.892890 
-0.386850 -0.316255 0.107767 
-0.349865 -0.349740 2.254919 
-0.467095 -0.163703 2.393933 
-0.163895 -0.466977 2.393960 
-0.266974 -0.418408 0.859130 
-0.418222 -0.267186 0.859186 
-0.113238 -0.486046 3.913583 
-0.116906 -0.485737 0.084180 
-0.440613 -0.226258 1.124667 
-0.226031 -0.440889 1.124617 
-0.111162 -0.486103 3.773339 
-0.119626 -0.484393 0.219615 
-0.490429 -0.091574 3.939090 
-0.491285 -0.091996 0.061717 
-0.351400 0.351578 0.664976 
-0.351899 0.351868 0.523972 
-0.341402 0.363441 0.282661 
-0.349633 0.350197 1.446422 
-0.349514 0.349963 1.664384 
-0.350701 0.351071 0.877091 
-0.349874 0.350479 1.232985 
-0.350628 0.350142 2.826889 
-0.349556 0.349758 1.917338 
-0.349731 0.349688 2.165064 
-0.350540 0.350020 2.645529 
-0.350105 0.349797 2.408259 
-0.351376 0.350955 3.205001 
-0.351038 0.350419 3.019808 
-0.342734 0.361810 3.689625 
-0.349634 0.354157 3.509313 
-0.193844 0.459904 3.855368 
-0.169880 0.469157 0.181328 
-0.418976 0.271231 3.891181 
-0.428242 0.256924 0.136936 
-0.154202 0.474054 3.700975 
-0.468496 0.170411 3.750631 
-0.206955 0.452728 3.513960 
-0.449490 0.213689 3.514692 
-0.441700 0.225386 0.969554 
-0.224878 0.442142 0.969378 
-0.182146 0.462073 0.777626 
-0.461851 0.182475 0.777850 
-0.457901 0.186562 2.037720 
-0.186492 0.458031 2.037831 
-0.473060 0.147026 2.607861 
-0.147538 0.472684 2.607910 
-0.456658 0.194714 3.107929 
-0.194893 0.456250 3.107987 
-0.193719 0.459082 0.362459 
-0.451692 0.210590 0.353004 
-0.465023 0.176735 0.557201 
-0.176647 0.465016 0.556955 
-0.455014 0.195891 1.125959 
-0.195301 0.455568 1.125880 
-0.460708 0.181037 2.409957 
-0.181319 0.460336 2.410147 
-0.457079 0.189693 1.322924 
-0.189112 0.457694 1.322971 
-0.456899 0.189585 1.531674 
-0.189030 0.457366 1.531696 
-0.174666 0.462745 1.773623 
-0.462422 0.175051 1.773482 
-0.449265 0.209745 2.867016 
-0.210167 0.448699 2.867166 
-0.459545 0.189635 3.304704 
-0.188340 0.459923 3.304473 
-0.316476 0.386282 0.106403 
-0.315633 0.386832 3.904090 
-0.350597 0.352835 3.368730 
-0.350233 0.350807 1.049958 
-0.091175 0.488712 0.664152 
-0.488658 0.091380 0.664441 
-0.441893 0.222419 2.245596 
-0.222507 0.441706 2.245741 
-0.417443 0.266306 2.519642 
-0.266770 0.417041 2.519702 
-0.486139 0.090063 1.898829 
-0.089825 0.486370 1.899041 
-0.097941 0.489905 3.947619 
-0.486039 0.115995 0.083854 
-0.484724 0.118539 0.218303 
-0.092241 0.490705 0.061097 
-0.481962 0.129414 3.917337 
0.352786 0.350557 0.638225 
0.353563 0.351718 0.163351 
0.350438 0.350162 1.364183 
0.351507 0.350879 0.878703 
0.350830 0.350657 1.087276 
0.350135 0.349967 1.647036 
0.349766 0.349739 1.913598 
0.350072 0.350195 2.826698 
0.349646 0.349807 2.407577 
0.349937 0.350101 2.645833 
0.349562 0.349624 2.164188 
0.350302 0.350401 2.968729 
0.338988 0.363789 3.390061 
0.352340 0.352354 3.668217 
0.456961 0.201410 3.851234 
0.201443 0.456947 3.851259 
0.471547 0.161513 3.692260 
0.161543 0.471549 3.692283 
0.466739 0.174348 0.274071 
0.176895 0.465924 0.274198 
0.189865 0.457536 1.372369 
0.457738 0.189589 1.372251 
0.186571 0.458000 2.036409 
0.457918 0.186541 2.036451 
0.472584 0.147014 2.608059 
0.146838 0.472726 2.608066 
0.148782 0.472967 3.039299 
0.472873 0.148800 3.039174 
0.185705 0.461928 3.513480 
0.461838 0.185524 3.513607 
0.457982 0.189717 1.223711 
0.189975 0.457854 1.223846 
0.189722 0.457296 1.523695 
0.457590 0.189492 1.523749 
0.449595 0.211379 3.266382 
[...]
POINT_DATA 507
SCALARS u float 1
LOOKUP_TABLE default
0.009236
0.009306
0.009181
0.009142
0.009106
0.009108
0.009265
0.009308
0.009249
0.009282
0.009289
0.009265
0.009249
0.009214
0.009139
0.009101
0.009124
0.009134
0.009143
0.009202
0.009092
0.009072
0.009078
0.009129
0.009153
0.009216
0.009299
0.009301
0.009334
0.009259
0.009189
0.009137
0.009125
0.008805
0.008224
0.007466
0.006562
0.005485
0.004288
0.003008
0.001766
0.001102
0.001833
0.003040
0.004278
0.005509
0.006538
0.007434
0.008144
0.008688
0.008999
0.009062
0.008745
0.008212
0.007445
0.006537
0.005470
0.004312
0.003046
0.001831
0.001135
0.001792
0.003005
0.004264
0.005485
0.006550
0.007469
0.008250
0.008806
0.009161
0.009186
0.008872
0.008309
0.007489
0.006564
0.005499
0.004306
0.002973
0.001740
0.001117
0.001862
0.003053
0.004287
0.005503
0.006492
0.007400
0.008202
0.008710
0.009000
0.009026
0.008698
0.008152
0.007407
0.006529
0.005494
0.004327
0.003061
0.001839
0.001135
0.001769
0.002984
0.004245
0.005450
0.006564
0.007497
0.008279
0.008878
0.009209
0.007996
0.009139
0.003772
0.006855
0.002515
0.005435
0.001241
0.005448
0.003009
0.004417
0.001619
0.006237
0.008014
0.008812
0.009122
0.009030
0.008879
0.008788
0.008935
0.008996
0.005452
0.005450
0.001156
0.001158
0.004194
0.004223
0.006550
0.006590
0.008426
0.008462
0.007571
0.007644
0.008433
0.008414
0.007558
0.007451
0.006262
0.006230
0.004607
0.004600
0.003318
0.003332
0.001911
0.001864
0.003005
0.003040
0.005467
0.005475
0.008679
0.009129
0.007200
0.006910
0.002029
0.002054
0.001320
0.001275
0.009217
0.009080
0.003662
0.003691
0.009195
0.009241
0.007523
0.008810
0.008197
0.002591
0.003766
0.005290
0.006528
0.001382
0.005446
0.004321
0.003313
0.001213
0.006514
0.007780
0.009020
0.008344
0.009191
0.008994
0.009219
0.009031
0.001629
0.001620
0.007381
0.007370
0.001141
0.001145
0.004219
0.004204
0.006552
0.006553
0.008643
0.008688
0.008860
0.008762
0.008171
0.008197
0.008034
0.008046
0.007202
0.007208
0.006520
0.006544
0.004750
0.004748
0.003389
0.003384
0.002128
0.002132
0.005476
0.005489
0.009252
0.009045
0.002017
0.002853
0.002862
0.007008
0.006997
0.009243
0.009113
0.005731
0.005736
0.009071
0.008957
0.009293
0.009095
0.007847
0.008301
0.008864
0.003905
0.002572
0.006996
0.005152
0.005508
0.001259
0.001579
0.004441
0.002966
0.007357
0.006526
0.008855
0.008420
0.009057
0.009076
0.009168
0.009050
0.008823
0.009020
0.008428
0.008478
0.006531
0.006562
0.007422
0.007378
0.001146
0.001132
0.004188
0.004208
0.006904
0.006925
0.008738
0.008719
0.008167
0.008217
0.005742
0.005749
0.002967
0.003021
0.004652
0.004628
0.003379
0.003362
0.001902
0.001945
0.005712
0.005753
0.007748
0.007721
0.009101
0.009133
0.007994
0.006157
0.007858
0.007800
0.001982
0.002021
0.003651
0.003667
0.001347
0.001292
0.009089
0.009095
0.008953
0.009187
0.009238
0.008034
0.009170
0.004390
0.006998
0.005969
0.002603
0.001219
0.005482
0.003030
0.004433
0.001652
0.006214
0.007980
0.008759
0.008993
0.008998
0.008759
0.008764
0.009016
0.008977
0.004318
0.004337
0.001140
0.001159
0.004218
0.004216
0.006577
0.006554
0.008362
0.008389
0.005222
0.005196
0.003389
0.003367
0.007507
0.007633
0.008498
0.008450
0.007575
0.007576
0.006450
0.006451
0.001891
0.001866
0.003051
0.003038
0.005490
0.005490
0.008726
0.009051
0.007172
0.006876
0.002095
0.002077
0.001282
0.001272
0.007027
0.007034
0.009066
0.009053
0.003690
0.003687
0.009269
0.009225
0.009465
0.009384
0.009379
0.009402
0.009356
0.009303
0.009457
0.009377
0.009357
0.009363
0.009406
0.009264
0.009283
0.009354
0.009289
0.009401
0.009256
0.009443
0.009423
0.009448
0.009428
0.009366
0.009254
0.009227
0.009381
0.009446
0.009437
0.009342
0.009396
0.009310
0.009416
0.009319
0.009382
0.009355
0.009380
0.009272
0.009396
0.009271
0.009320
0.009407
0.009329
0.009255
0.009443
0.009426
0.009437
0.009383
0.009275
0.009336
0.009376
0.009258
0.007536
0.005777
0.009325
0.009273
0.009322
0.009038
0.009273
0.009191
0.009221
0.008951
0.009213
0.008905
0.009260
0.008996
0.009222
0.008920
0.008911
0.007652
0.005930
0.003766
0.001416
0.001266
0.003626
0.007851
0.007094
0.003024
0.003042
0.004176
0.005260
0.005256
0.006229
0.007877
0.008465
0.008490
0.007840
0.007110
0.008436
0.001876
0.001874
0.000818
0.001853
0.001798
0.001797
0.006241
0.008003
0.009294
0.009342
0.009356
0.009031
0.008888
0.001005
0.000901
0.005276
0.003082
0.007239
0.007226
0.007993
0.007276
0.008017
0.007988
0.002023
0.002028
0.007078
0.006213
0.009022
0.009085
0.008590
0.005251
0.009295
0.009322
0.009337
0.009328
0.001809
0.001806
0.007142
0.007196
0.003274
0.007335
0.006280
0.001868
0.001863
0.000799
0.003042
0.000948
0.003201
0.003227
0.003236
0.004370
0.002059
