# vtk DataFile Version 2.0
Unstructured Grid Example
ASCII
DATASET UNSTRUCTURED_GRID
POINTS 507 float
-0.000510 0.499571 -0.043637 
0.499175 -0.000217 -0.043962 
-0.000573 -0.499940 -0.043376 
-0.500241 -0.000203 -0.043193 
0.000352 0.500195 4.043022 
0.500205 0.000274 4.043033 
0.000441 -0.499517 4.043770 
-0.499297 0.000325 4.043975 
0.190762 0.461647 -0.043695 
0.352858 0.353236 -0.043850 
0.461278 0.191098 -0.043884 
0.461267 -0.191461 -0.043770 
0.352871 -0.353541 -0.043697 
0.190750 -0.461999 -0.043531 
-0.191845 -0.461943 -0.043177 
-0.353915 -0.353686 -0.043003 
-0.462220 -0.191515 -0.043109 
-0.462231 0.191116 -0.043155 
-0.353971 0.353196 -0.043198 
-0.191808 0.461536 -0.043475 
0.191643 0.462171 4.042956 
0.353881 0.353841 4.042862 
0.462195 0.191606 4.042893 
0.462186 -0.190976 4.043132 
0.353912 -0.353189 4.043245 
0.191733 -0.461494 4.043543 
-0.190830 -0.461481 4.043933 
-0.352894 -0.353203 4.043940 
-0.461225 -0.191030 4.044095 
-0.461308 0.191637 4.043744 
-0.353054 0.353765 4.043416 
-0.190902 0.462114 4.043169 
-0.000334 0.499059 0.156895 
-0.000157 0.498282 0.358432 
0.000129 0.497558 0.561217 
0.000196 0.496924 0.764859 
0.000342 0.496379 0.969210 
0.000349 0.495879 1.174415 
0.000381 0.495448 1.380259 
0.000306 0.495145 1.586643 
0.000209 0.494930 1.793373 
0.000072 0.494794 2.000026 
-0.000103 0.494751 2.206887 
-0.000262 0.494965 2.413452 
-0.000331 0.495322 2.619661 
-0.000317 0.495502 2.825635 
-0.000213 0.495996 3.030630 
-0.000319 0.496623 3.234963 
-0.000130 0.497710 3.438414 
0.000053 0.498252 3.641014 
0.000201 0.499259 3.842514 
-0.000344 -0.499279 0.157187 
-0.000148 -0.498348 0.358711 
0.000079 -0.497609 0.561274 
0.000297 -0.496860 0.764965 
0.000323 -0.496181 0.969352 
0.000423 -0.495619 1.174532 
0.000358 -0.495097 1.380226 
0.000299 -0.494835 1.586571 
0.000186 -0.494689 1.793171 
0.000020 -0.494640 1.999899 
-0.000112 -0.494817 2.206696 
-0.000259 -0.495112 2.413326 
-0.000334 -0.495541 2.619645 
-0.000352 -0.495873 2.825584 
-0.000345 -0.496372 3.030734 
-0.000240 -0.497028 3.235167 
-0.000057 -0.497701 3.438911 
0.000027 -0.498311 3.641572 
0.000238 -0.498971 3.843273 
0.498777 -0.000129 0.156614 
0.498191 -0.000120 0.358119 
0.497467 -0.000023 0.560823 
0.497187 0.000012 0.764728 
0.496466 0.000124 0.969187 
0.496012 0.000102 1.174326 
0.495618 0.000214 1.380135 
0.495345 0.000167 1.586746 
0.495022 0.000119 1.793460 
0.494725 0.000057 2.000181 
0.494658 -0.000018 2.206991 
0.494843 -0.000122 2.413474 
0.495148 -0.000167 2.619664 
0.495390 -0.000134 2.825588 
0.495941 -0.000160 3.030404 
0.496819 -0.000214 3.234818 
0.497578 -0.000155 3.438677 
0.498281 0.000042 3.641119 
0.499294 0.000192 3.842520 
-0.499475 -0.000168 0.157355 
-0.498435 -0.000091 0.358931 
-0.497625 -0.000041 0.561557 
-0.496805 0.000084 0.765147 
-0.495988 0.000120 0.969411 
-0.495378 0.000193 1.174456 
-0.494962 0.000217 1.380187 
-0.494752 0.000189 1.586524 
-0.494680 0.000119 1.793130 
-0.494643 0.000070 1.999808 
-0.494876 0.000006 2.206606 
-0.495216 -0.000048 2.413260 
-0.495646 -0.000144 2.619577 
-0.495934 -0.000145 2.825430 
-0.496461 -0.000274 3.030811 
-0.497136 -0.000172 3.235305 
-0.497884 -0.000152 3.439059 
-0.498139 -0.000061 3.641909 
-0.498749 0.000159 3.843496 
0.350728 -0.352725 0.643100 
0.351544 -0.354120 0.165544 
0.350545 -0.350003 1.460574 
0.351292 -0.351224 0.901317 
0.350197 -0.349788 1.668491 
0.350745 -0.350213 1.185806 
0.349928 -0.349738 1.918439 
0.350314 -0.350781 2.825388 
0.349753 -0.350124 2.406862 
0.350041 -0.350563 2.644827 
0.349782 -0.349867 2.165153 
0.350443 -0.350882 2.967493 
0.363883 -0.339216 3.388444 
0.352445 -0.352410 3.666504 
0.201426 -0.456580 3.849820 
0.456987 -0.201069 3.849387 
0.161621 -0.471685 3.690871 
0.471625 -0.161419 3.690432 
0.174238 -0.467139 0.276469 
0.465844 -0.177319 0.276118 
0.190035 -0.457730 1.177396 
0.458269 -0.189515 1.177356 
0.186616 -0.458130 2.038181 
0.458184 -0.186563 2.038338 
0.146882 -0.473165 2.607098 
0.472689 -0.147407 2.607167 
0.473044 -0.149177 3.037707 
0.148681 -0.473499 3.037934 
0.461882 -0.185804 3.511909 
0.185675 -0.461995 3.512080 
0.211374 -0.449851 3.265013 
0.469400 -0.163604 3.288951 
0.458748 -0.192641 0.505945 
0.190309 -0.459851 0.506424 
0.469925 -0.162580 0.763451 
0.162019 -0.469842 0.764037 
0.460560 -0.185206 1.028378 
0.185489 -0.460154 1.028576 
0.189938 -0.457469 1.327355 
0.457976 -0.189398 1.327331 
0.457694 -0.189229 1.535598 
0.189775 -0.457252 1.535593 
0.175166 -0.462697 1.775126 
0.463035 -0.174862 1.775245 
0.180871 -0.460783 2.409351 
0.460433 -0.181277 2.409465 
0.189420 -0.458226 2.824982 
0.457687 -0.189878 2.824965 
0.347852 -0.356339 0.416176 
0.353372 -0.352879 3.909663 
0.374073 -0.326700 3.178216 
0.278405 -0.411037 3.112220 
0.222381 -0.442005 2.245293 
0.441836 -0.222553 2.245383 
0.090094 -0.486427 1.899549 
0.486610 -0.089919 1.899712 
0.100470 -0.489045 3.945225 
0.489583 -0.099917 3.944582 
0.266242 -0.417513 2.518940 
0.417059 -0.266706 2.519045 
0.187729 -0.462796 0.077790 
0.461788 -0.189215 0.077568 
-0.351339 -0.351504 0.735136 
-0.363792 -0.341305 0.289005 
-0.351837 -0.351898 0.550430 
-0.349705 -0.349802 1.668906 
-0.349845 -0.349977 1.471394 
-0.350124 -0.350340 1.208504 
-0.350634 -0.350854 0.969312 
-0.349745 -0.349746 1.894254 
-0.350780 -0.350611 2.825410 
-0.350565 -0.350409 2.630365 
-0.350313 -0.350162 2.466060 
-0.349864 -0.349802 2.073883 
-0.351151 -0.351009 3.020163 
-0.351689 -0.351677 3.301594 
-0.363366 -0.341094 3.711598 
-0.352044 -0.351980 3.457136 
-0.469015 -0.169380 3.815854 
-0.469648 -0.169717 0.184434 
-0.251821 -0.430610 3.854332 
-0.258167 -0.427631 0.139783 
-0.205554 -0.450095 2.178924 
-0.450174 -0.205449 2.178890 
-0.147461 -0.474430 0.775146 
-0.474319 -0.147695 0.775198 
-0.163661 -0.466778 1.987888 
-0.466776 -0.163626 1.987833 
-0.175110 -0.463688 2.613839 
-0.463814 -0.174930 2.613782 
-0.458690 -0.190065 3.027116 
-0.190206 -0.458579 3.027112 
-0.459282 -0.193676 0.364510 
-0.213156 -0.450549 0.359601 
-0.458987 -0.193547 3.632817 
-0.183134 -0.463304 3.610828 
-0.459593 -0.190800 0.557377 
-0.190722 -0.459619 0.557257 
-0.460587 -0.188536 3.377415 
-0.186783 -0.461157 3.373871 
-0.189724 -0.459226 3.165020 
-0.459203 -0.189936 3.165652 
-0.461594 -0.181511 0.970500 
-0.181282 -0.461778 0.970378 
-0.450785 -0.204535 1.307301 
-0.204346 -0.450944 1.307298 
-0.457090 -0.189221 1.535625 
-0.189095 -0.457205 1.535632 
-0.184946 -0.458785 1.744322 
-0.458741 -0.185017 1.744309 
-0.458111 -0.189795 2.825542 
-0.189994 -0.457976 2.825595 
-0.386174 -0.315775 3.890817 
-0.386859 -0.316268 0.109794 
-0.350032 -0.349913 2.254536 
-0.467311 -0.163778 2.393336 
-0.163962 -0.467198 2.393361 
-0.267072 -0.418543 0.860691 
-0.418365 -0.267274 0.860745 
-0.113260 -0.486085 3.911512 
-0.116893 -0.485759 0.086222 
-0.440803 -0.226352 1.125933 
-0.226136 -0.441067 1.125886 
-0.111182 -0.486161 3.771307 
-0.119626 -0.484443 0.221622 
-0.490477 -0.091589 3.937008 
-0.491294 -0.091992 0.063756 
-0.351498 0.351667 0.666730 
-0.351973 0.351944 0.525830 
-0.341438 0.363492 0.284647 
-0.349811 0.350349 1.447266 
-0.349697 0.350125 1.664906 
-0.350831 0.351183 0.878650 
-0.350040 0.350618 1.234119 
-0.350760 0.350297 2.825671 
-0.349737 0.349930 1.917470 
-0.349904 0.349863 2.164810 
-0.350676 0.350180 2.644556 
-0.350262 0.349967 2.407636 
-0.351475 0.351073 3.203360 
-0.351151 0.350561 3.018357 
-0.342786 0.361863 3.687642 
-0.349703 0.354238 3.507429 
-0.193870 0.459938 3.853339 
-0.169882 0.469206 0.183361 
-0.419018 0.271240 3.889127 
-0.428257 0.256951 0.138964 
-0.154229 0.474117 3.698999 
-0.468560 0.170430 3.748610 
-0.206991 0.452822 3.512074 
-0.449579 0.213743 3.512795 
-0.441872 0.225459 0.971006 
-0.224974 0.442294 0.970837 
-0.182213 0.462208 0.779282 
-0.461996 0.182527 0.779496 
-0.458135 0.186654 2.037668 
-0.186588 0.458259 2.037774 
-0.473256 0.147098 2.606946 
-0.147587 0.472898 2.606993 
-0.456800 0.194792 3.106391 
-0.194949 0.456417 3.106445 
-0.193743 0.459156 0.364416 
-0.451756 0.210628 0.354956 
-0.465130 0.176776 0.559027 
-0.176692 0.465123 0.558793 
-0.455213 0.195959 1.127228 
-0.195395 0.455742 1.127153 
-0.460917 0.181124 2.409332 
-0.181394 0.460562 2.409513 
-0.457299 0.189768 1.323941 
-0.189213 0.457886 1.323986 
-0.457127 0.189664 1.532392 
-0.189135 0.457573 1.532413 
-0.174763 0.462969 1.773972 
-0.462660 0.175131 1.773837 
-0.449431 0.209837 2.865750 
-0.210238 0.448891 2.865893 
-0.459659 0.189697 3.302972 
-0.188378 0.460055 3.302748 
-0.316479 0.386317 0.108443 
-0.315666 0.386848 3.902044 
-0.350670 0.352928 3.366942 
-0.350384 0.350931 1.051324 
-0.091207 0.488837 0.665909 
-0.488786 0.091403 0.666184 
-0.442105 0.222529 2.245222 
-0.222613 0.441927 2.245360 
-0.417622 0.266434 2.518854 
-0.266877 0.417238 2.518911 
-0.486388 0.090104 1.898994 
-0.089876 0.486609 1.899195 
-0.097960 0.489920 3.945583 
-0.486050 0.116010 0.085892 
-0.484766 0.118559 0.220309 
-0.092226 0.490740 0.063155 
-0.482008 0.129411 3.915267 
0.352868 0.350646 0.640021 
0.353609 0.351754 0.165405 
0.350579 0.350315 1.365145 
0.351609 0.350990 0.880264 
0.350953 0.350788 1.088602 
0.350290 0.350129 1.647575 
0.349937 0.349911 1.913722 
0.350229 0.350347 2.825489 
0.349823 0.349977 2.406944 
0.350101 0.350257 2.644866 
0.349742 0.349801 2.163919 
0.350449 0.350544 2.967351 
0.339070 0.363883 3.388277 
0.352394 0.352409 3.666255 
0.456989 0.201418 3.849218 
0.201449 0.456975 3.849242 
0.471615 0.161533 3.690299 
0.161562 0.471616 3.690320 
0.466813 0.174375 0.276090 
0.176929 0.465990 0.276208 
0.189932 0.457735 1.373313 
0.457929 0.189669 1.373201 
0.186663 0.458229 2.036345 
0.458151 0.186634 2.036385 
0.472802 0.147087 2.607143 
0.146919 0.472938 2.607149 
0.148844 0.473146 3.037837 
0.473056 0.148861 3.037718 
0.185741 0.462018 3.511608 
0.461932 0.185568 3.511730 
0.458162 0.189790 1.224865 
0.190036 0.458039 1.224994 
0.189795 0.457506 1.524421 
0.457787 0.189576 1.524473 
0.449722 0.211448 3.264706 
[...]
POINT_DATA 507
SCALARS u float 1
LOOKUP_TABLE default
0.009236
0.009306
0.009181
0.009142
0.009106
0.009108
0.009265
0.009308
0.009249
0.009282
0.009289
0.009265
0.009249
0.009214
0.009139
0.009101
0.009124
0.009134
0.009143
0.009202
0.009092
0.009072
0.009078
0.009129
0.009153
0.009216
0.009299
0.009301
0.009334
0.009259
0.009189
0.009137
0.009125
0.008805
0.008224
0.007466
0.006562
0.005485
0.004288
0.003008
0.001766
0.001102
0.001833
0.003040
0.004278
0.005509
0.006538
0.007434
0.008144
0.008688
0.008999
0.009062
0.008745
0.008212
0.007445
0.006537
0.005470
0.004312
0.003046
0.001831
0.001135
0.001792
0.003005
0.004264
0.005485
0.006550
0.007469
0.008250
0.008806
0.009161
0.009186
0.008872
0.008309
0.007489
0.006564
0.005499
0.004306
0.002973
0.001740
0.001117
0.001862
0.003053
0.004287
0.005503
0.006492
0.007400
0.008202
0.008710
0.009000
0.009026
0.008698
0.008152
0.007407
0.006529
0.005494
0.004327
0.003061
0.001839
0.001135
0.001769
0.002984
0.004245
0.005450
0.006564
0.007497
0.008279
0.008878
0.009209
0.007996
0.009139
0.003772
0.006855
0.002515
0.005435
0.001241
0.005448
0.003009
0.004417
0.001619
0.006237
0.008014
0.008812
0.009122
0.009030
0.008879
0.008788
0.008935
0.008996
0.005452
0.005450
0.001156
0.001158
0.004194
0.004223
0.006550
0.006590
0.008426
0.008462
0.007571
0.007644
0.008433
0.008414
0.007558
0.007451
0.006262
0.006230
0.004607
0.004600
0.003318
0.003332
0.001911
0.001864
0.003005
0.003040
0.005467
0.005475
0.008679
0.009129
0.007200
0.006910
0.002029
0.002054
0.001320
0.001275
0.009217
0.009080
0.003662
0.003691
0.009195
0.009241
0.007523
0.008810
0.008197
0.002591
0.003766
0.005290
0.006528
0.001382
0.005446
0.004321
0.003313
0.001213
0.006514
0.007780
0.009020
0.008344
0.009191
0.008994
0.009219
0.009031
0.001629
0.001620
0.007381
0.007370
0.001141
0.001145
0.004219
0.004204
0.006552
0.006553
0.008643
0.008688
0.008860
0.008762
0.008171
0.008197
0.008034
0.008046
0.007202
0.007208
0.006520
0.006544
0.004750
0.004748
0.003389
0.003384
0.002128
0.002132
0.005476
0.005489
0.009252
0.009045
0.002017
0.002853
0.002862
0.007008
0.006997
0.009243
0.009113
0.005731
0.005736
0.009071
0.008957
0.009293
0.009095
0.007847
0.008301
0.008864
0.003905
0.002572
0.006996
0.005152
0.005508
0.001259
0.001579
0.004441
0.002966
0.007357
0.006526
0.008855
0.008420
0.009057
0.009076
0.009168
0.009050
0.008823
0.009020
0.008428
0.008478
0.006531
0.006562
0.007422
0.007378
0.001146
0.001132
0.004188
0.004208
0.006904
0.006925
0.008738
0.008719
0.008167
0.008217
0.005742
0.005749
0.002967
0.003021
0.004652
0.004628
0.003379
0.003362
0.001902
0.001945
0.005712
0.005753
0.007748
0.007721
0.009101
0.009133
0.007994
0.006157
0.007858
0.007800
0.001982
0.002021
0.003651
0.003667
0.001347
0.001292
0.009089
0.009095
0.008953
0.009187
0.009238
0.008034
0.009170
0.004390
0.006998
0.005969
0.002603
0.001219
0.005482
0.003030
0.004433
0.001652
0.006214
0.007980
0.008759
0.008993
0.008998
0.008759
0.008764
0.009016
0.008977
0.004318
0.004337
0.001140
0.001159
0.004218
0.004216
0.006577
0.006554
0.008362
0.008389
0.005222
0.005196
0.003389
0.003367
0.007507
0.007633
0.008498
0.008450
0.007575
0.007576
0.006450
0.006451
0.001891
0.001866
0.003051
0.003038
0.005490
0.005490
0.008726
0.009051
0.007172
0.006876
0.002095
0.002077
0.001282
0.001272
0.007027
0.007034
0.009066
0.009053
0.003690
0.003687
0.009269
0.009225
0.009465
0.009384
0.009379
0.009402
0.009356
0.009303
0.009457
0.009377
0.009357
0.009363
0.009406
0.009264
0.009283
0.009354
0.009289
0.009401
0.009256
0.009443
0.009423
0.009448
0.009428
0.009366
0.009254
0.009227
0.009381
0.009446
0.009437
0.009342
0.009396
0.009310
0.009416
0.009319
0.009382
0.009355
0.009380
0.009272
0.009396
0.009271
0.009320
0.009407
0.009329
0.009255
0.009443
0.009426
0.009437
0.009383
0.009275
0.009336
0.009376
0.009258
0.007536
0.005777
0.009325
0.009273
0.009322
0.009038
0.009273
0.009191
0.009221
0.008951
0.009213
0.008905
0.009260
0.008996
0.009222
0.008920
0.008911
0.007652
0.005930
0.003766
0.001416
0.001266
0.003626
0.007851
0.007094
0.003024
0.003042
0.004176
0.005260
0.005256
0.006229
0.007877
0.008465
0.008490
0.007840
0.007110
0.008436
0.001876
0.001874
0.000818
0.001853
0.001798
0.001797
0.006241
0.008003
0.009294
0.009342
0.009356
0.009031
0.008888
0.001005
0.000901
0.005276
0.003082
0.007239
0.007226
0.007993
0.007276
0.008017
0.007988
0.002023
0.002028
0.007078
0.006213
0.009022
0.009085
0.008590
0.005251
0.009295
0.009322
0.009337
0.009328
0.001809
0.001806
0.007142
0.007196
0.003274
0.007335
0.006280
0.001868
0.001863
0.000799
0.003042
0.000948
0.003201
0.003227
0.003236
0.004370
0.002059
