# vtk DataFile Version 2.0
Unstructured Grid Example
ASCII
DATASET UNSTRUCTURED_GRID
POINTS 507 float
-0.000440 0.499630 -0.037614 
0.499289 -0.000187 -0.037895 
-0.000494 -0.499948 -0.037389 
-0.500208 -0.000175 -0.037231 
0.000304 0.500168 4.037084 
0.500176 0.000237 4.037094 
0.000380 -0.499584 4.037729 
-0.499394 0.000280 4.037906 
0.190842 0.461687 -0.037665 
0.352954 0.353280 -0.037798 
0.461370 0.191132 -0.037827 
0.461360 -0.191444 -0.037729 
0.352966 -0.353542 -0.037666 
0.190832 -0.461991 -0.037523 
-0.191776 -0.461943 -0.037218 
-0.353865 -0.353668 -0.037068 
-0.462181 -0.191491 -0.037159 
-0.462191 0.191147 -0.037199 
-0.353913 0.353245 -0.037236 
-0.191744 0.461592 -0.037475 
0.191601 0.462139 4.037027 
0.353835 0.353801 4.036947 
0.462160 0.191569 4.036973 
0.462152 -0.191026 4.037179 
0.353863 -0.353239 4.037276 
0.191679 -0.461555 4.037533 
-0.190901 -0.461544 4.037870 
-0.352985 -0.353251 4.037876 
-0.461324 -0.191073 4.038009 
-0.461395 0.191596 4.037707 
-0.353123 0.353736 4.037424 
-0.190962 0.462090 4.037211 
-0.000288 0.499189 0.162844 
-0.000135 0.498520 0.364169 
0.000111 0.497895 0.566569 
0.000169 0.497349 0.769709 
0.000295 0.496879 0.973460 
0.000301 0.496447 1.177946 
0.000328 0.496076 1.382984 
0.000264 0.495815 1.588487 
0.000180 0.495630 1.794288 
0.000062 0.495513 2.000022 
-0.000089 0.495476 2.205936 
-0.000226 0.495660 2.411596 
-0.000285 0.495968 2.616948 
-0.000273 0.496123 2.822097 
-0.000184 0.496549 3.026403 
-0.000275 0.497089 3.230137 
-0.000112 0.498026 3.433112 
0.000046 0.498493 3.635354 
0.000174 0.499361 3.836647 
-0.000297 -0.499379 0.163096 
-0.000127 -0.498576 0.364410 
0.000068 -0.497939 0.566619 
0.000256 -0.497294 0.769800 
0.000278 -0.496708 0.973582 
0.000364 -0.496223 1.178047 
0.000309 -0.495773 1.382955 
0.000258 -0.495548 1.588424 
0.000161 -0.495422 1.794114 
0.000018 -0.495380 1.999913 
-0.000097 -0.495532 2.205772 
-0.000223 -0.495787 2.411487 
-0.000288 -0.496157 2.616934 
-0.000304 -0.496443 2.822053 
-0.000297 -0.496873 3.026492 
-0.000207 -0.497438 3.230313 
-0.000049 -0.498018 3.433541 
0.000023 -0.498544 3.635835 
0.000205 -0.499113 3.837301 
0.498946 -0.000111 0.162602 
0.498440 -0.000103 0.363899 
0.497817 -0.000020 0.566230 
0.497575 0.000010 0.769596 
0.496954 0.000107 0.973440 
0.496562 0.000088 1.177870 
0.496223 0.000184 1.382877 
0.495988 0.000144 1.588575 
0.495709 0.000103 1.794362 
0.495453 0.000049 2.000156 
0.495395 -0.000016 2.206027 
0.495555 -0.000105 2.411614 
0.495817 -0.000144 2.616950 
0.496026 -0.000116 2.822056 
0.496501 -0.000138 3.026208 
0.497258 -0.000185 3.230013 
0.497912 -0.000133 3.433339 
0.498518 0.000036 3.635444 
0.499392 0.000165 3.836652 
-0.499547 -0.000145 0.163241 
-0.498651 -0.000079 0.364599 
-0.497953 -0.000035 0.566863 
-0.497246 0.000073 0.769957 
-0.496542 0.000104 0.973633 
-0.496016 0.000167 1.177981 
-0.495657 0.000187 1.382921 
-0.495477 0.000163 1.588384 
-0.495414 0.000103 1.794078 
-0.495382 0.000061 1.999835 
-0.495583 0.000005 2.205695 
-0.495876 -0.000042 2.411430 
-0.496247 -0.000124 2.616875 
-0.496495 -0.000125 2.821920 
-0.496949 -0.000236 3.026559 
-0.497531 -0.000149 3.230432 
-0.498176 -0.000131 3.433668 
-0.498396 -0.000052 3.636125 
-0.498922 0.000137 3.837493 
0.350975 -0.352982 0.648302 
0.351677 -0.354185 0.171502 
0.350960 -0.350493 1.462949 
0.351574 -0.351575 0.905764 
0.350660 -0.350308 1.669976 
0.351132 -0.350674 1.189299 
0.350429 -0.350264 1.918796 
0.350761 -0.351164 2.821884 
0.350278 -0.350598 2.405032 
0.350525 -0.350976 2.642018 
0.350302 -0.350376 2.164388 
0.350872 -0.351250 2.963466 
0.364155 -0.339436 3.383230 
0.352598 -0.352568 3.660762 
0.201446 -0.456716 3.843873 
0.457067 -0.201139 3.843499 
0.161668 -0.471872 3.685084 
0.471821 -0.161493 3.684706 
0.174337 -0.467312 0.282292 
0.466055 -0.177365 0.281980 
0.190215 -0.458311 1.180899 
0.458776 -0.189767 1.180865 
0.186889 -0.458811 2.038009 
0.458858 -0.186844 2.038144 
0.147121 -0.473750 2.604437 
0.473340 -0.147574 2.604496 
0.473579 -0.149311 3.033472 
0.148884 -0.473971 3.033667 
0.462163 -0.185899 3.506422 
0.185788 -0.462261 3.506569 
0.211584 -0.450204 3.260093 
0.469787 -0.163712 3.283982 
0.459061 -0.192768 0.511434 
0.190437 -0.460145 0.511901 
0.470280 -0.162715 0.768365 
0.162115 -0.470248 0.768878 
0.461006 -0.185426 1.032432 
0.185639 -0.460669 1.032603 
0.190132 -0.458086 1.330288 
0.458523 -0.189666 1.330268 
0.458280 -0.189520 1.537660 
0.189991 -0.457899 1.537656 
0.175394 -0.463387 1.776138 
0.463678 -0.175131 1.776241 
0.181160 -0.461409 2.407517 
0.461108 -0.181509 2.407616 
0.189685 -0.458738 2.821463 
0.458274 -0.190080 2.821449 
0.348057 -0.356530 0.421829 
0.353397 -0.352972 3.903710 
0.374445 -0.326977 3.173544 
0.278713 -0.411421 3.107741 
0.222722 -0.442638 2.244182 
0.442492 -0.222870 2.244259 
0.090213 -0.487149 1.900003 
0.487306 -0.090061 1.900143 
0.100443 -0.489155 3.939215 
0.489619 -0.099966 3.938662 
0.266640 -0.418048 2.516647 
0.417657 -0.267040 2.516738 
0.187821 -0.462844 0.083785 
0.461925 -0.189227 0.083592 
-0.351645 -0.351787 0.740024 
-0.363900 -0.341426 0.294748 
-0.352074 -0.352127 0.555765 
-0.350236 -0.350319 1.670425 
-0.350357 -0.350471 1.473745 
-0.350598 -0.350784 1.211892 
-0.351037 -0.351227 0.973533 
-0.350270 -0.350272 1.894763 
-0.351163 -0.351017 2.821903 
-0.350977 -0.350843 2.627612 
-0.350760 -0.350630 2.463998 
-0.350374 -0.350320 2.073569 
-0.351483 -0.351360 3.015942 
-0.351947 -0.351936 3.296534 
-0.363532 -0.341244 3.705720 
-0.352253 -0.352197 3.451702 
-0.469185 -0.169452 3.809863 
-0.469730 -0.169746 0.190298 
-0.251928 -0.430733 3.848322 
-0.258175 -0.427704 0.145672 
-0.205843 -0.450750 2.178139 
-0.450818 -0.205752 2.178110 
-0.147628 -0.474838 0.779939 
-0.474742 -0.147830 0.779984 
-0.163907 -0.467476 1.987965 
-0.467474 -0.163876 1.987918 
-0.175291 -0.464261 2.611155 
-0.464369 -0.175136 2.611105 
-0.459139 -0.190241 3.022871 
-0.190363 -0.459042 3.022867 
-0.459481 -0.193756 0.370142 
-0.213235 -0.450752 0.365263 
-0.459227 -0.193644 3.627045 
-0.183227 -0.463537 3.605119 
-0.459896 -0.190925 0.562696 
-0.190858 -0.459918 0.562592 
-0.460886 -0.188651 3.372185 
-0.186900 -0.461475 3.368635 
-0.189862 -0.459636 3.160343 
-0.459600 -0.190084 3.160970 
-0.462108 -0.181713 0.974716 
-0.181516 -0.462266 0.974610 
-0.451411 -0.204819 1.310322 
-0.204656 -0.451549 1.310319 
-0.457759 -0.189514 1.537710 
-0.189405 -0.457858 1.537717 
-0.185238 -0.459462 1.745498 
-0.459423 -0.185299 1.745486 
-0.458639 -0.190008 2.822016 
-0.190180 -0.458523 2.822063 
-0.386307 -0.315865 3.884786 
-0.386884 -0.316305 0.115693 
-0.350518 -0.350415 2.253421 
-0.467939 -0.163998 2.391598 
-0.164157 -0.467841 2.391620 
-0.267357 -0.418935 0.865236 
-0.418782 -0.267532 0.865282 
-0.113326 -0.486196 3.905486 
-0.116854 -0.485821 0.092164 
-0.441356 -0.226628 1.129619 
-0.226442 -0.441584 1.129578 
-0.111241 -0.486330 3.765394 
-0.119624 -0.484586 0.227461 
-0.490615 -0.091632 3.930950 
-0.491320 -0.091980 0.069687 
-0.351782 0.351928 0.671833 
-0.352192 0.352166 0.531234 
-0.341540 0.363641 0.290424 
-0.350327 0.350791 1.449720 
-0.350229 0.350598 1.666424 
-0.351206 0.351510 0.883184 
-0.350525 0.351024 1.237419 
-0.351146 0.350746 2.822128 
-0.350264 0.350430 1.917853 
-0.350407 0.350373 2.164070 
-0.351074 0.350646 2.641725 
-0.350716 0.350462 2.405822 
-0.351762 0.351415 3.198583 
-0.351483 0.350974 3.014134 
-0.342937 0.362015 3.681872 
-0.349904 0.354472 3.501947 
-0.193944 0.460037 3.847434 
-0.169888 0.469349 0.189278 
-0.419140 0.271268 3.883150 
-0.428302 0.257030 0.144865 
-0.154306 0.474299 3.693249 
-0.468746 0.170486 3.742731 
-0.207096 0.453094 3.506586 
-0.449841 0.213900 3.507275 
-0.442373 0.225671 0.975230 
-0.225253 0.442737 0.975084 
-0.182407 0.462602 0.784103 
-0.462420 0.182678 0.784287 
-0.458816 0.186922 2.037516 
-0.186865 0.458922 2.037608 
-0.473829 0.147307 2.604284 
-0.147728 0.473520 2.604324 
-0.457213 0.195020 3.101914 
-0.195112 0.456901 3.101959 
-0.193813 0.459372 0.370109 
-0.451940 0.210741 0.360638 
-0.465440 0.176896 0.564343 
-0.176824 0.465434 0.564141 
-0.455790 0.196154 1.130923 
-0.195667 0.456246 1.130858 
-0.461525 0.181378 2.407512 
-0.181610 0.461219 2.407669 
-0.457940 0.189985 1.326898 
-0.189507 0.458446 1.326937 
-0.457791 0.189896 1.534480 
-0.189439 0.458175 1.534498 
-0.175046 0.463621 1.774989 
-0.463355 0.175363 1.774873 
-0.449914 0.210107 2.862066 
-0.210447 0.449452 2.862189 
-0.459993 0.189878 3.297934 
-0.188487 0.460438 3.297729 
-0.316486 0.386418 0.114377 
-0.315760 0.386897 3.896089 
-0.350883 0.353198 3.361741 
-0.350821 0.351293 1.055299 
-0.091300 0.489203 0.671019 
-0.489158 0.091469 0.671257 
-0.442724 0.222850 2.244133 
-0.222923 0.442570 2.244252 
-0.418142 0.266805 2.516561 
-0.267187 0.417811 2.516610 
-0.487116 0.090221 1.899472 
-0.090025 0.487306 1.899646 
-0.098015 0.489963 3.939656 
-0.486082 0.116054 0.091823 
-0.484885 0.118620 0.226146 
-0.092182 0.490842 0.069145 
-0.482142 0.129403 3.909244 
0.353105 0.350905 0.645249 
0.353745 0.351858 0.171383 
0.350990 0.350762 1.367942 
0.351907 0.351314 0.884806 
0.351312 0.351170 1.092459 
0.350740 0.350602 1.649141 
0.350436 0.350414 1.914083 
0.350688 0.350790 2.821971 
0.350338 0.350471 2.405101 
0.350578 0.350712 2.642051 
0.350268 0.350319 2.163134 
0.350877 0.350959 2.963343 
0.339310 0.364155 3.383086 
0.352554 0.352567 3.660547 
0.457069 0.201439 3.843354 
0.201466 0.457057 3.843375 
0.471812 0.161592 3.684590 
0.161617 0.471813 3.684609 
0.467031 0.174455 0.281966 
0.177029 0.466181 0.282058 
0.190126 0.458316 1.376062 
0.458482 0.189900 1.375965 
0.186930 0.458897 2.036157 
0.458829 0.186905 2.036191 
0.473437 0.147297 2.604475 
0.147153 0.473554 2.604480 
0.149025 0.473668 3.033584 
0.473590 0.149039 3.033481 
0.185845 0.462280 3.506163 
0.462206 0.185696 3.506268 
0.458683 0.190004 1.228224 
0.190217 0.458578 1.228335 
0.190009 0.458118 1.526534 
0.458360 0.189820 1.526578 
0.450093 0.211648 3.259829 
[...]
POINT_DATA 507
SCALARS u float 1
LOOKUP_TABLE default
0.009236
0.009306
0.009181
0.009142
0.009106
0.009108
0.009265
0.009308
0.009249
0.009282
0.009289
0.009265
0.009249
0.009214
0.009139
0.009101
0.009124
0.009134
0.009143
0.009202
0.009092
0.009072
0.009078
0.009129
0.009153
0.009216
0.009299
0.009301
0.009334
0.009259
0.009189
0.009137
0.009125
0.008805
0.008224
0.007466
0.006562
0.005485
0.004288
0.003008
0.001766
0.001102
0.001833
0.003040
0.004278
0.005509
0.006538
0.007434
0.008144
0.008688
0.008999
0.009062
0.008745
0.008212
0.007445
0.006537
0.005470
0.004312
0.003046
0.001831
0.001135
0.001792
0.003005
0.004264
0.005485
0.006550
0.007469
0.008250
0.008806
0.009161
0.009186
0.008872
0.008309
0.007489
0.006564
0.005499
0.004306
0.002973
0.001740
0.001117
0.001862
0.003053
0.004287
0.005503
0.006492
0.007400
0.008202
0.008710
0.009000
0.009026
0.008698
0.008152
0.007407
0.006529
0.005494
0.004327
0.003061
0.001839
0.001135
0.001769
0.002984
0.004245
0.005450
0.006564
0.007497
0.008279
0.008878
0.009209
0.007996
0.009139
0.003772
0.006855
0.002515
0.005435
0.001241
0.005448
0.003009
0.004417
0.001619
0.006237
0.008014
0.008812
0.009122
0.009030
0.008879
0.008788
0.008935
0.008996
0.005452
0.005450
0.001156
0.001158
0.004194
0.004223
0.006550
0.006590
0.008426
0.008462
0.007571
0.007644
0.008433
0.008414
0.007558
0.007451
0.006262
0.006230
0.004607
0.004600
0.003318
0.003332
0.001911
0.001864
0.003005
0.003040
0.005467
0.005475
0.008679
0.009129
0.007200
0.006910
0.002029
0.002054
0.001320
0.001275
0.009217
0.009080
0.003662
0.003691
0.009195
0.009241
0.007523
0.008810
0.008197
0.002591
0.003766
0.005290
0.006528
0.001382
0.005446
0.004321
0.003313
0.001213
0.006514
0.007780
0.009020
0.008344
0.009191
0.008994
0.009219
0.009031
0.001629
0.001620
0.007381
0.007370
0.001141
0.001145
0.004219
0.004204
0.006552
0.006553
0.008643
0.008688
0.008860
0.008762
0.008171
0.008197
0.008034
0.008046
0.007202
0.007208
0.006520
0.006544
0.004750
0.004748
0.003389
0.003384
0.002128
0.002132
0.005476
0.005489
0.009252
0.009045
0.002017
0.002853
0.002862
0.007008
0.006997
0.009243
0.009113
0.005731
0.005736
0.009071
0.008957
0.009293
0.009095
0.007847
0.008301
0.008864
0.003905
0.002572
0.006996
0.005152
0.005508
0.001259
0.001579
0.004441
0.002966
0.007357
0.006526
0.008855
0.008420
0.009057
0.009076
0.009168
0.009050
0.008823
0.009020
0.008428
0.008478
0.006531
0.006562
0.007422
0.007378
0.001146
0.001132
0.004188
0.004208
0.006904
0.006925
0.008738
0.008719
0.008167
0.008217
0.005742
0.005749
0.002967
0.003021
0.004652
0.004628
0.003379
0.003362
0.001902
0.001945
0.005712
0.005753
0.007748
0.007721
0.009101
0.009133
0.007994
0.006157
0.007858
0.007800
0.001982
0.002021
0.003651
0.003667
0.001347
0.001292
0.009089
0.009095
0.008953
0.009187
0.009238
0.008034
0.009170
0.004390
0.006998
0.005969
0.002603
0.001219
0.005482
0.003030
0.004433
0.001652
0.006214
0.007980
0.008759
0.008993
0.008998
0.008759
0.008764
0.009016
0.008977
0.004318
0.004337
0.001140
0.001159
0.004218
0.004216
0.006577
0.006554
0.008362
0.008389
0.005222
0.005196
0.003389
0.003367
0.007507
0.007633
0.008498
0.008450
0.007575
0.007576
0.006450
0.006451
0.001891
0.001866
0.003051
0.003038
0.005490
0.005490
0.008726
0.009051
0.007172
0.006876
0.002095
0.002077
0.001282
0.001272
0.007027
0.007034
0.009066
0.009053
0.003690
0.003687
0.009269
0.009225
0.009465
0.009384
0.009379
0.009402
0.009356
0.009303
0.009457
0.009377
0.009357
0.009363
0.009406
0.009264
0.009283
0.009354
0.009289
0.009401
0.009256
0.009443
0.009423
0.009448
0.009428
0.009366
0.009254
0.009227
0.009381
0.009446
0.009437
0.009342
0.009396
0.009310
0.009416
0.009319
0.009382
0.009355
0.009380
0.009272
0.009396
0.009271
0.009320
0.009407
0.009329
0.009255
0.009443
0.009426
0.009437
0.009383
0.009275
0.009336
0.009376
0.009258
0.007536
0.005777
0.009325
0.009273
0.009322
0.009038
0.009273
0.009191
0.009221
0.008951
0.009213
0.008905
0.009260
0.008996
0.009222
0.008920
0.008911
0.007652
0.005930
0.003766
0.001416
0.001266
0.003626
0.007851
0.007094
0.003024
0.003042
0.004176
0.005260
0.005256
0.006229
0.007877
0.008465
0.008490
0.007840
0.007110
0.008436
0.001876
0.001874
0.000818
0.001853
0.001798
0.001797
0.006241
0.008003
0.009294
0.009342
0.009356
0.009031
0.008888
0.001005
0.000901
0.005276
0.003082
0.007239
0.007226
0.007993
0.007276
0.008017
0.007988
0.002023
0.002028
0.007078
0.006213
0.009022
0.009085
0.008590
0.005251
0.009295
0.009322
0.009337
0.009328
0.001809
0.001806
0.007142
0.007196
0.003274
0.007335
0.006280
0.001868
0.001863
0.000799
0.003042
0.000948
0.003201
0.003227
0.003236
0.004370
0.002059
