# vtk DataFile Version 2.0
Unstructured Grid Example
ASCII
DATASET UNSTRUCTURED_GRID
POINTS 507 float
0.000440 0.500370 0.037614 
0.500711 0.000187 0.037895 
0.000494 -0.500052 0.037389 
-0.499792 0.000175 0.037231 
-0.000304 0.499832 3.962916 
0.499824 -0.000237 3.962906 
-0.000380 -0.500416 3.962271 
-0.500606 -0.000280 3.962094 
0.191841 0.462192 0.037665 
0.354153 0.353827 0.037798 
0.462510 0.191552 0.037827 
0.462520 -0.191239 0.037729 
0.354141 -0.353564 0.037666 
0.191852 -0.461889 0.037523 
-0.190908 -0.461937 0.037218 
-0.353242 -0.353439 0.037068 
-0.461698 -0.191192 0.037159 
-0.461688 0.191536 0.037199 
-0.353194 0.353862 0.037236 
-0.190940 0.462288 0.037475 
0.191082 0.461741 3.962973 
0.353271 0.353306 3.963053 
0.461719 0.191114 3.963027 
0.461727 -0.191657 3.962821 
0.353244 -0.353868 3.962724 
0.191004 -0.462324 3.962467 
-0.191783 -0.462336 3.962130 
-0.354122 -0.353856 3.962124 
-0.462556 -0.191611 3.961991 
-0.462485 0.191087 3.962293 
-0.353984 0.353371 3.962576 
-0.191721 0.461790 3.962789 
0.000288 0.500811 0.237156 
0.000135 0.501480 0.435831 
-0.000111 0.502105 0.633431 
-0.000169 0.502651 0.830291 
-0.000295 0.503121 1.026540 
-0.000301 0.503553 1.222054 
-0.000328 0.503924 1.417016 
-0.000264 0.504185 1.611513 
-0.000180 0.504370 1.805712 
-0.000062 0.504487 1.999978 
0.000089 0.504524 2.194064 
0.000226 0.504340 2.388404 
0.000285 0.504032 2.583052 
0.000273 0.503877 2.777903 
0.000184 0.503451 2.973597 
0.000275 0.502911 3.169863 
0.000112 0.501974 3.366888 
-0.000046 0.501507 3.564646 
-0.000174 0.500639 3.763353 
0.000297 -0.500621 0.236904 
0.000127 -0.501424 0.435590 
-0.000068 -0.502061 0.633381 
-0.000256 -0.502706 0.830200 
-0.000278 -0.503292 1.026418 
-0.000364 -0.503777 1.221953 
-0.000309 -0.504227 1.417045 
-0.000258 -0.504452 1.611576 
-0.000161 -0.504578 1.805886 
-0.000018 -0.504620 2.000087 
0.000097 -0.504468 2.194228 
0.000223 -0.504213 2.388513 
0.000288 -0.503843 2.583066 
0.000304 -0.503557 2.777947 
0.000297 -0.503127 2.973508 
0.000207 -0.502562 3.169687 
0.000049 -0.501982 3.366459 
-0.000023 -0.501456 3.564165 
-0.000205 -0.500887 3.762699 
0.501054 0.000111 0.237398 
0.501560 0.000103 0.436101 
0.502183 0.000020 0.633770 
0.502425 -0.000010 0.830404 
0.503046 -0.000107 1.026560 
0.503438 -0.000088 1.222130 
0.503777 -0.000184 1.417123 
0.504012 -0.000144 1.611425 
0.504291 -0.000103 1.805638 
0.504547 -0.000049 1.999844 
0.504605 0.000016 2.193973 
0.504445 0.000105 2.388386 
0.504183 0.000144 2.583050 
0.503974 0.000116 2.777944 
0.503499 0.000138 2.973792 
0.502742 0.000185 3.169987 
0.502088 0.000133 3.366661 
0.501482 -0.000036 3.564556 
0.500608 -0.000165 3.763348 
-0.500453 0.000145 0.236759 
-0.501349 0.000079 0.435401 
-0.502047 0.000035 0.633137 
-0.502754 -0.000073 0.830043 
-0.503458 -0.000104 1.026367 
-0.503984 -0.000167 1.222019 
-0.504343 -0.000187 1.417079 
-0.504523 -0.000163 1.611616 
-0.504586 -0.000103 1.805922 
-0.504618 -0.000061 2.000165 
-0.504417 -0.000005 2.194305 
-0.504124 0.000042 2.388570 
-0.503753 0.000124 2.583125 
-0.503505 0.000125 2.778080 
-0.503051 0.000236 2.973441 
-0.502469 0.000149 3.169568 
-0.501824 0.000131 3.366332 
-0.501604 0.000052 3.563875 
-0.501078 -0.000137 3.762507 
0.354066 -0.356185 0.713280 
0.353349 -0.354996 0.245925 
0.356147 -0.356614 1.492607 
0.355102 -0.355961 0.961317 
0.356447 -0.356799 1.688523 
0.355974 -0.356433 1.232923 
0.356678 -0.356842 1.923256 
0.356345 -0.355943 2.778116 
0.356829 -0.356509 2.382166 
0.356581 -0.356131 2.606930 
0.356805 -0.356731 2.154831 
0.356234 -0.355856 2.913158 
0.367558 -0.342177 3.318099 
0.354508 -0.354539 3.589036 
0.201700 -0.458420 3.769585 
0.458068 -0.202007 3.769958 
0.162249 -0.474213 3.612794 
0.474265 -0.162424 3.613172 
0.175570 -0.469473 0.355028 
0.468695 -0.177940 0.355208 
0.192468 -0.465568 1.224656 
0.465104 -0.192916 1.224691 
0.190307 -0.467322 2.035867 
0.467275 -0.190352 2.035732 
0.150106 -0.481057 2.571194 
0.481467 -0.149654 2.571135 
0.480265 -0.150990 2.980564 
0.151418 -0.479873 2.980369 
0.465673 -0.187089 3.437883 
0.187200 -0.465575 3.437735 
0.214209 -0.454616 3.198640 
0.474623 -0.165057 3.221918 
0.462970 -0.194349 0.580001 
0.192044 -0.463818 0.580321 
0.474704 -0.164404 0.829746 
0.163310 -0.475319 0.829349 
0.466582 -0.188179 1.083063 
0.187502 -0.467106 1.082911 
0.192552 -0.465794 1.366934 
0.465356 -0.193017 1.366954 
0.465599 -0.193163 1.563420 
0.192692 -0.465980 1.563424 
0.178231 -0.472000 1.788786 
0.471710 -0.178494 1.788684 
0.184764 -0.469236 2.384608 
0.469537 -0.184414 2.384510 
0.192998 -0.465141 2.777517 
0.465605 -0.192603 2.777531 
0.350616 -0.358911 0.492438 
0.353710 -0.354134 3.829360 
0.379081 -0.330442 3.115182 
0.282552 -0.416215 3.051789 
0.226986 -0.450538 2.230302 
0.450684 -0.226837 2.230224 
0.091694 -0.496167 1.905669 
0.496009 -0.091846 1.905528 
0.100101 -0.490530 3.864149 
0.490066 -0.100578 3.864703 
0.271612 -0.424736 2.488007 
0.425127 -0.271212 2.487917 
0.188978 -0.463451 0.158673 
0.463637 -0.189369 0.158844 
-0.355462 -0.355320 0.801084 
-0.365245 -0.342934 0.366481 
-0.355033 -0.354980 0.622412 
-0.356871 -0.356787 1.689392 
-0.356750 -0.356636 1.503107 
-0.356509 -0.356323 1.254217 
-0.356070 -0.355880 1.026265 
-0.356837 -0.356835 1.901130 
-0.355944 -0.356090 2.778097 
-0.356130 -0.356264 2.593221 
-0.356347 -0.356477 2.438252 
-0.356733 -0.356787 2.069641 
-0.355624 -0.355747 2.963224 
-0.355160 -0.355171 3.233327 
-0.365612 -0.343116 3.632296 
-0.354854 -0.354910 3.383836 
-0.471308 -0.170359 3.735029 
-0.470750 -0.170104 0.263550 
-0.253270 -0.432270 3.773251 
-0.258281 -0.428610 0.219231 
-0.209450 -0.458938 2.168335 
-0.458870 -0.209540 2.168363 
-0.149713 -0.479934 0.839806 
-0.480029 -0.149511 0.839761 
-0.166971 -0.476198 1.988938 
-0.476199 -0.167001 1.988985 
-0.177557 -0.471419 2.577620 
-0.471311 -0.177713 2.577669 
-0.464741 -0.192442 2.969838 
-0.192321 -0.464837 2.969841 
-0.461965 -0.194751 0.440498 
-0.214216 -0.453287 0.435981 
-0.462219 -0.194863 3.554949 
-0.184386 -0.466442 3.533815 
-0.463682 -0.192487 0.629129 
-0.192554 -0.463659 0.629233 
-0.464615 -0.190094 3.306862 
-0.188362 -0.465444 3.303235 
-0.191587 -0.464754 3.101925 
-0.464551 -0.191943 3.102494 
-0.468528 -0.184235 1.027377 
-0.184432 -0.468369 1.027482 
-0.459235 -0.208368 1.348048 
-0.208530 -0.459098 1.348051 
-0.466120 -0.193169 1.563764 
-0.193278 -0.466021 1.563758 
-0.188888 -0.467916 1.760184 
-0.467954 -0.188827 1.760195 
-0.465240 -0.192675 2.777984 
-0.192504 -0.465357 2.777937 
-0.387968 -0.316984 3.809450 
-0.387209 -0.316767 0.189373 
-0.356588 -0.356692 2.239501 
-0.475780 -0.166750 2.369891 
-0.166591 -0.475878 2.369869 
-0.270922 -0.423832 0.921996 
-0.423985 -0.270747 0.921949 
-0.114150 -0.487588 3.830214 
-0.116373 -0.486601 0.166389 
-0.448266 -0.230070 1.175656 
-0.230256 -0.448038 1.175696 
-0.111976 -0.488439 3.691535 
-0.119604 -0.486377 0.300399 
-0.492348 -0.092171 3.855273 
-0.491642 -0.091833 0.143775 
-0.355325 0.355179 0.735575 
-0.354915 0.354940 0.598743 
-0.342820 0.365504 0.362591 
-0.356780 0.356316 1.480373 
-0.356878 0.356508 1.685390 
-0.355900 0.355596 0.939829 
-0.356582 0.356083 1.278641 
-0.355961 0.356361 2.777872 
-0.356843 0.356677 1.922636 
-0.356699 0.356734 2.154833 
-0.356033 0.356461 2.606362 
-0.356391 0.356644 2.383163 
-0.355345 0.355691 3.138917 
-0.355624 0.356133 2.961387 
-0.344824 0.363922 3.609795 
-0.352414 0.357392 3.433470 
-0.194870 0.461279 3.773676 
-0.169962 0.471131 0.263184 
-0.420669 0.271614 3.808485 
-0.428860 0.258017 0.218571 
-0.155271 0.476575 3.621418 
-0.471074 0.171184 3.669295 
-0.208405 0.456499 3.438032 
-0.453103 0.215859 3.438322 
-0.448634 0.228320 1.027990 
-0.228737 0.448269 1.028136 
-0.184831 0.467524 0.844310 
-0.467707 0.184561 0.844126 
-0.467318 0.190274 2.035625 
-0.190331 0.467211 2.035533 
-0.480978 0.149920 2.571028 
-0.149499 0.481287 2.570988 
-0.462374 0.197866 3.045988 
-0.197153 0.462951 3.045915 
-0.194693 0.462074 0.441229 
-0.454243 0.212145 0.431612 
-0.469315 0.178396 0.630736 
-0.178469 0.469321 0.630938 
-0.463001 0.198590 1.177071 
-0.199076 0.462545 1.177136 
-0.469120 0.184546 2.384784 
-0.184314 0.469426 2.384627 
-0.465940 0.192699 1.363843 
-0.193177 0.465434 1.363804 
-0.466088 0.192788 1.560568 
-0.193244 0.465704 1.560551 
-0.178579 0.471766 1.787690 
-0.472032 0.178262 1.787807 
-0.455946 0.213472 2.816051 
-0.213045 0.456448 2.815924 
-0.464165 0.192132 3.234995 
-0.189855 0.465228 3.235033 
-0.316585 0.387676 0.188503 
-0.316936 0.387503 3.821706 
-0.353541 0.356581 3.296767 
-0.356286 0.355813 1.104952 
-0.092466 0.493767 0.734854 
-0.493812 0.092297 0.734616 
-0.450452 0.226858 2.230532 
-0.226785 0.450606 2.230413 
-0.424642 0.271447 2.487917 
-0.271065 0.424973 2.487868 
-0.496200 0.091686 1.905442 
-0.091882 0.496010 1.905268 
-0.098704 0.490497 3.865622 
-0.486477 0.116606 0.165904 
-0.486382 0.119370 0.299054 
-0.091631 0.492119 0.143970 
-0.483817 0.129293 3.834012 
0.356062 0.354136 0.710546 
0.355436 0.353168 0.246045 
0.356117 0.356345 1.402891 
0.355630 0.355362 0.941548 
0.355795 0.355937 1.140643 
0.356367 0.356505 1.668710 
0.356670 0.356693 1.918599 
0.356419 0.356317 2.778029 
0.356769 0.356636 2.382080 
0.356529 0.356395 2.606894 
0.356838 0.356787 2.153331 
0.356229 0.356148 2.913280 
0.342303 0.367558 3.318243 
0.354552 0.354540 3.589251 
0.458067 0.201707 3.770103 
0.201680 0.458079 3.770083 
0.474274 0.162325 3.613287 
0.162301 0.474272 3.613269 
0.469753 0.175452 0.355354 
0.178276 0.468570 0.355130 
0.192557 0.465564 1.410396 
0.465397 0.192784 1.410493 
0.190266 0.467236 2.033813 
0.467304 0.190291 2.033778 
0.481369 0.149930 2.571148 
0.150074 0.481253 2.571143 
0.151277 0.480177 2.980453 
0.480255 0.151262 2.980555 
0.187143 0.465556 3.438142 
0.465630 0.187292 3.438037 
0.465196 0.192679 1.270175 
0.192467 0.465302 1.270064 
0.192675 0.465761 1.552922 
0.465520 0.192864 1.552878 
0.454727 0.214145 3.198904 
0.165397 0.474705 3.221980 
[...]
POINT_DATA 507
SCALARS u float 1
LOOKUP_TABLE default
0.009236
0.009306
0.009181
0.009142
0.009106
0.009108
0.009265
0.009308
0.009249
0.009282
0.009289
0.009265
0.009249
0.009214
0.009139
0.009101
0.009124
0.009134
0.009143
0.009202
0.009092
0.009072
0.009078
0.009129
0.009153
0.009216
0.009299
0.009301
0.009334
0.009259
0.009189
0.009137
0.009125
0.008805
0.008224
0.007466
0.006562
0.005485
0.004288
0.003008
0.001766
0.001102
0.001833
0.003040
0.004278
0.005509
0.006538
0.007434
0.008144
0.008688
0.008999
0.009062
0.008745
0.008212
0.007445
0.006537
0.005470
0.004312
0.003046
0.001831
0.001135
0.001792
0.003005
0.004264
0.005485
0.006550
0.007469
0.008250
0.008806
0.009161
0.009186
0.008872
0.008309
0.007489
0.006564
0.005499
0.004306
0.002973
0.001740
0.001117
0.001862
0.003053
0.004287
0.005503
0.006492
0.007400
0.008202
0.008710
0.009000
0.009026
0.008698
0.008152
0.007407
0.006529
0.005494
0.004327
0.003061
0.001839
0.001135
0.001769
0.002984
0.004245
0.005450
0.006564
0.007497
0.008279
0.008878
0.009209
0.007996
0.009139
0.003772
0.006855
0.002515
0.005435
0.001241
0.005448
0.003009
0.004417
0.001619
0.006237
0.008014
0.008812
0.009122
0.009030
0.008879
0.008788
0.008935
0.008996
0.005452
0.005450
0.001156
0.001158
0.004194
0.004223
0.006550
0.006590
0.008426
0.008462
0.007571
0.007644
0.008433
0.008414
0.007558
0.007451
0.006262
0.006230
0.004607
0.004600
0.003318
0.003332
0.001911
0.001864
0.003005
0.003040
0.005467
0.005475
0.008679
0.009129
0.007200
0.006910
0.002029
0.002054
0.001320
0.001275
0.009217
0.009080
0.003662
0.003691
0.009195
0.009241
0.007523
0.008810
0.008197
0.002591
0.003766
0.005290
0.006528
0.001382
0.005446
0.004321
0.003313
0.001213
0.006514
0.007780
0.009020
0.008344
0.009191
0.008994
0.009219
0.009031
0.001629
0.001620
0.007381
0.007370
0.001141
0.001145
0.004219
0.004204
0.006552
0.006553
0.008643
0.008688
0.008860
0.008762
0.008171
0.008197
0.008034
0.008046
0.007202
0.007208
0.006520
0.006544
0.004750
0.004748
0.003389
0.003384
0.002128
0.002132
0.005476
0.005489
0.009252
0.009045
0.002017
0.002853
0.002862
0.007008
0.006997
0.009243
0.009113
0.005731
0.005736
0.009071
0.008957
0.009293
0.009095
0.007847
0.008301
0.008864
0.003905
0.002572
0.006996
0.005152
0.005508
0.001259
0.001579
0.004441
0.002966
0.007357
0.006526
0.008855
0.008420
0.009057
0.009076
0.009168
0.009050
0.008823
0.009020
0.008428
0.008478
0.006531
0.006562
0.007422
0.007378
0.001146
0.001132
0.004188
0.004208
0.006904
0.006925
0.008738
0.008719
0.008167
0.008217
0.005742
0.005749
0.002967
0.003021
0.004652
0.004628
0.003379
0.003362
0.001902
0.001945
0.005712
0.005753
0.007748
0.007721
0.009101
0.009133
0.007994
0.006157
0.007858
0.007800
0.001982
0.002021
0.003651
0.003667
0.001347
0.001292
0.009089
0.009095
0.008953
0.009187
0.009238
0.008034
0.009170
0.004390
0.006998
0.005969
0.002603
0.001219
0.005482
0.003030
0.004433
0.001652
0.006214
0.007980
0.008759
0.008993
0.008998
0.008759
0.008764
0.009016
0.008977
0.004318
0.004337
0.001140
0.001159
0.004218
0.004216
0.006577
0.006554
0.008362
0.008389
0.005222
0.005196
0.003389
0.003367
0.007507
0.007633
0.008498
0.008450
0.007575
0.007576
0.006450
0.006451
0.001891
0.001866
0.003051
0.003038
0.005490
0.005490
0.008726
0.009051
0.007172
0.006876
0.002095
0.002077
0.001282
0.001272
0.007027
0.007034
0.009066
0.009053
0.003690
0.003687
0.009269
0.009225
0.009465
0.009384
0.009379
0.009402
0.009356
0.009303
0.009457
0.009377
0.009357
0.009363
0.009406
0.009264
0.009283
0.009354
0.009289
0.009401
0.009256
0.009443
0.009423
0.009448
0.009428
0.009366
0.009254
0.009227
0.009381
0.009446
0.009437
0.009342
0.009396
0.009310
0.009416
0.009319
0.009382
0.009355
0.009380
0.009272
0.009396
0.009271
0.009320
0.009407
0.009329
0.009255
0.009443
0.009426
0.009437
0.009383
0.009275
0.009336
0.009376
0.009258
0.007536
0.005777
0.009325
0.009273
0.009322
0.009038
0.009273
0.009191
0.009221
0.008951
0.009213
0.008905
0.009260
0.008996
0.009222
0.008920
0.008911
0.007652
0.005930
0.003766
0.001416
0.001266
0.003626
0.007851
0.007094
0.003024
0.003042
0.004176
0.005260
0.005256
0.006229
0.007877
0.008465
0.008490
0.007840
0.007110
0.008436
0.001876
0.001874
0.000818
0.001853
0.001798
0.001797
0.006241
0.008003
0.009294
0.009342
0.009356
0.009031
0.008888
0.001005
0.000901
0.005276
0.003082
0.007239
0.007226
0.007993
0.007276
0.008017
0.007988
0.002023
0.002028
0.007078
0.006213
0.009022
0.009085
0.008590
0.005251
0.009295
0.009322
0.009337
0.009328
0.001809
0.001806
0.007142
0.007196
0.003274
0.007335
0.006280
0.001868
0.001863
0.000799
0.003042
0.000948
0.003201
0.003227
0.003236
0.004370
0.002059
