# vtk DataFile Version 2.0
Unstructured Grid Example
ASCII
DATASET UNSTRUCTURED_GRID
POINTS 507 float
0.000201 0.500169 0.017162 
0.500324 0.000085 0.017290 
0.000225 -0.500024 0.017059 
-0.499905 0.000080 0.016987 
-0.000139 0.499923 3.983080 
0.499920 -0.000108 3.983075 
-0.000173 -0.500190 3.982786 
-0.500277 -0.000128 3.982705 
0.191570 0.462055 0.017185 
0.353827 0.353678 0.017246 
0.462200 0.191438 0.017259 
0.462204 -0.191295 0.017214 
0.353822 -0.353558 0.017186 
0.191574 -0.461917 0.017121 
-0.191144 -0.461938 0.016981 
-0.353411 -0.353501 0.016913 
-0.461830 -0.191273 0.016954 
-0.461825 0.191431 0.016973 
-0.353389 0.353694 0.016989 
-0.191158 0.462098 0.017099 
0.191223 0.461849 3.983106 
0.353425 0.353440 3.983143 
0.461839 0.191238 3.983130 
0.461843 -0.191486 3.983036 
0.353412 -0.353697 3.982992 
0.191188 -0.462115 3.982875 
-0.191543 -0.462120 3.982721 
-0.353813 -0.353691 3.982719 
-0.462221 -0.191464 3.982658 
-0.462188 0.191226 3.982796 
-0.353750 0.353470 3.982925 
-0.191515 0.461871 3.983022 
0.000131 0.500370 0.216953 
0.000062 0.500675 0.416349 
-0.000051 0.500960 0.615253 
-0.000077 0.501210 0.813821 
-0.000134 0.501424 1.012109 
-0.000137 0.501621 1.210062 
-0.000150 0.501790 1.407764 
-0.000120 0.501909 1.605253 
-0.000082 0.501994 1.802606 
-0.000028 0.502047 1.999990 
0.000041 0.502064 2.197291 
0.000103 0.501980 2.394709 
0.000130 0.501840 2.592267 
0.000125 0.501769 2.789918 
0.000084 0.501575 2.987953 
0.000125 0.501328 3.186249 
0.000051 0.500901 3.384892 
-0.000021 0.500687 3.583869 
-0.000079 0.500292 3.783279 
0.000135 -0.500283 0.216838 
0.000058 -0.500650 0.416239 
-0.000031 -0.500941 0.615231 
-0.000117 -0.501235 0.813779 
-0.000127 -0.501502 1.012054 
-0.000166 -0.501723 1.210016 
-0.000141 -0.501928 1.407777 
-0.000118 -0.502031 1.605282 
-0.000073 -0.502089 1.802686 
-0.000008 -0.502108 2.000040 
0.000044 -0.502038 2.197367 
0.000102 -0.501922 2.394759 
0.000131 -0.501754 2.592274 
0.000139 -0.501623 2.789938 
0.000136 -0.501427 2.987913 
0.000095 -0.501169 3.186169 
0.000023 -0.500904 3.384697 
-0.000011 -0.500664 3.583650 
-0.000094 -0.500405 3.782981 
0.500481 0.000051 0.217063 
0.500712 0.000047 0.416472 
0.500996 0.000009 0.615408 
0.501106 -0.000005 0.813872 
0.501390 -0.000049 1.012118 
0.501569 -0.000040 1.210097 
0.501723 -0.000084 1.407813 
0.501831 -0.000065 1.605213 
0.501958 -0.000047 1.802572 
0.502075 -0.000022 1.999929 
0.502101 0.000007 2.197250 
0.502028 0.000048 2.394701 
0.501908 0.000066 2.592266 
0.501813 0.000053 2.789936 
0.501596 0.000063 2.988042 
0.501251 0.000084 3.186306 
0.500952 0.000061 3.384788 
0.500676 -0.000016 3.583828 
0.500277 -0.000075 3.783277 
-0.500207 0.000066 0.216772 
-0.500616 0.000036 0.416152 
-0.500934 0.000016 0.615119 
-0.501257 -0.000033 0.813708 
-0.501578 -0.000047 1.012030 
-0.501818 -0.000076 1.210046 
-0.501981 -0.000085 1.407792 
-0.502064 -0.000074 1.605300 
-0.502092 -0.000047 1.802702 
-0.502107 -0.000028 2.000075 
-0.502015 -0.000002 2.197402 
-0.501882 0.000019 2.394785 
-0.501712 0.000056 2.592301 
-0.501599 0.000057 2.789999 
-0.501392 0.000108 2.987882 
-0.501126 0.000068 3.186115 
-0.500832 0.000060 3.384639 
-0.500732 0.000024 3.583518 
-0.500492 -0.000063 3.782893 
0.353225 -0.355314 0.695615 
0.352895 -0.354775 0.225692 
0.354737 -0.354950 1.484544 
0.354143 -0.354769 0.946214 
0.354873 -0.355034 1.683481 
0.354658 -0.354867 1.221063 
0.354979 -0.355054 1.922044 
0.354827 -0.354644 2.790015 
0.355048 -0.354902 2.388383 
0.354935 -0.354729 2.616469 
0.355037 -0.355003 2.157429 
0.354777 -0.354604 2.926835 
0.366633 -0.341432 3.335806 
0.353989 -0.354003 3.608536 
0.201631 -0.457956 3.789781 
0.457796 -0.201771 3.789952 
0.162091 -0.473577 3.632447 
0.473600 -0.162171 3.632620 
0.175235 -0.468885 0.335253 
0.467977 -0.177784 0.335300 
0.191856 -0.463595 1.212760 
0.463383 -0.192060 1.212776 
0.189378 -0.465008 2.036450 
0.464987 -0.189399 2.036388 
0.149294 -0.479070 2.580232 
0.479257 -0.149088 2.580205 
0.478448 -0.150534 2.994948 
0.150729 -0.478268 2.994859 
0.464719 -0.186765 3.456516 
0.186816 -0.464674 3.456449 
0.213495 -0.453417 3.215347 
0.473308 -0.164691 3.238791 
0.461907 -0.193919 0.561360 
0.191608 -0.462819 0.561720 
0.473501 -0.163945 0.813059 
0.162985 -0.473941 0.812909 
0.465066 -0.187431 1.069298 
0.186995 -0.465356 1.069234 
0.191894 -0.463698 1.356971 
0.463499 -0.192106 1.356980 
0.463609 -0.192173 1.556417 
0.191958 -0.463783 1.556419 
0.177460 -0.469659 1.785348 
0.469526 -0.177580 1.785301 
0.183784 -0.467108 2.390836 
0.467245 -0.183625 2.390791 
0.192098 -0.463401 2.789464 
0.463612 -0.191917 2.789471 
0.349920 -0.358264 0.473242 
0.353625 -0.353819 3.849573 
0.377820 -0.329500 3.131048 
0.281508 -0.414912 3.067000 
0.225826 -0.448390 2.234075 
0.448457 -0.225759 2.234040 
0.091292 -0.493715 1.904128 
0.493643 -0.091361 1.904064 
0.100194 -0.490156 3.884557 
0.489944 -0.100412 3.884810 
0.270260 -0.422918 2.495793 
0.423096 -0.270078 2.495752 
0.188663 -0.463286 0.138313 
0.463172 -0.189331 0.138385 
-0.354424 -0.354359 0.784484 
-0.364879 -0.342524 0.346979 
-0.354228 -0.354204 0.604293 
-0.355067 -0.355029 1.684235 
-0.355012 -0.354960 1.495124 
-0.354902 -0.354817 1.242710 
-0.354702 -0.354615 1.011929 
-0.355051 -0.355051 1.899399 
-0.354644 -0.354711 2.790006 
-0.354729 -0.354790 2.602571 
-0.354828 -0.354887 2.445251 
-0.355004 -0.355029 2.070709 
-0.354498 -0.354554 2.977557 
-0.354287 -0.354292 3.250511 
-0.365047 -0.342607 3.652258 
-0.354147 -0.354172 3.402287 
-0.470731 -0.170112 3.755374 
-0.470473 -0.170007 0.243635 
-0.252905 -0.431852 3.793661 
-0.258252 -0.428364 0.199233 
-0.208469 -0.456712 2.171000 
-0.456681 -0.208510 2.171013 
-0.149146 -0.478548 0.823530 
-0.478592 -0.149054 0.823509 
-0.166138 -0.473827 1.988674 
-0.473827 -0.166151 1.988695 
-0.176941 -0.469473 2.586737 
-0.469424 -0.177012 2.586759 
-0.463218 -0.191844 2.984256 
-0.191788 -0.463262 2.984257 
-0.461290 -0.194480 0.421370 
-0.213949 -0.452598 0.416755 
-0.461406 -0.194531 3.574549 
-0.184071 -0.465652 3.553200 
-0.462652 -0.192062 0.611068 
-0.192093 -0.462642 0.611115 
-0.463601 -0.189702 3.324621 
-0.187964 -0.464365 3.321015 
-0.191118 -0.463363 3.117807 
-0.463205 -0.191438 3.118392 
-0.466782 -0.183549 1.013060 
-0.183639 -0.466710 1.013108 
-0.457108 -0.207403 1.337792 
-0.207477 -0.457045 1.337793 
-0.463847 -0.192176 1.556681 
-0.192225 -0.463802 1.556678 
-0.187896 -0.465617 1.756191 
-0.465635 -0.187868 1.756196 
-0.463446 -0.191950 2.789955 
-0.191872 -0.463499 2.789934 
-0.387517 -0.316680 3.829931 
-0.387121 -0.316641 0.169341 
-0.354938 -0.354985 2.243285 
-0.473648 -0.166002 2.375792 
-0.165929 -0.473693 2.375782 
-0.269953 -0.422501 0.906565 
-0.422570 -0.269873 0.906543 
-0.113926 -0.487209 3.850678 
-0.116504 -0.486389 0.146209 
-0.446387 -0.229134 1.163140 
-0.229219 -0.446284 1.163158 
-0.111776 -0.487866 3.711615 
-0.119609 -0.485890 0.280570 
-0.491877 -0.092024 3.875847 
-0.491554 -0.091873 0.123633 
-0.354362 0.354295 0.718245 
-0.354175 0.354186 0.580389 
-0.342472 0.364997 0.342971 
-0.355025 0.354814 1.472039 
-0.355070 0.354902 1.680234 
-0.354624 0.354486 0.924429 
-0.354935 0.354708 1.267434 
-0.354652 0.354834 2.789904 
-0.355054 0.354978 1.921336 
-0.354989 0.355005 2.157344 
-0.354685 0.354880 2.615976 
-0.354848 0.354964 2.389323 
-0.354371 0.354529 3.155138 
-0.354498 0.354730 2.975727 
-0.344311 0.363404 3.629390 
-0.351732 0.356598 3.452086 
-0.194619 0.460941 3.793728 
-0.169942 0.470647 0.243092 
-0.420253 0.271520 3.828784 
-0.428709 0.257748 0.198533 
-0.155009 0.475956 3.640946 
-0.470441 0.170994 3.689260 
-0.208049 0.455573 3.456670 
-0.452216 0.215326 3.457068 
-0.446932 0.227599 1.013646 
-0.227790 0.446765 1.013713 
-0.184172 0.466186 0.827942 
-0.466270 0.184049 0.827858 
-0.465006 0.189363 2.036139 
-0.189389 0.464958 2.036097 
-0.479034 0.149210 2.580069 
-0.149017 0.479175 2.580051 
-0.460971 0.197092 3.061192 
-0.196598 0.461306 3.061151 
-0.194454 0.461339 0.421894 
-0.453617 0.211763 0.412316 
-0.468262 0.177988 0.612686 
-0.178022 0.468264 0.612778 
-0.461041 0.197928 1.164525 
-0.198150 0.460833 1.164555 
-0.467055 0.183685 2.390963 
-0.183579 0.467195 2.390891 
-0.463765 0.191961 1.353799 
-0.192179 0.463534 1.353781 
-0.463833 0.192001 1.553476 
-0.192210 0.463657 1.553468 
-0.177618 0.469552 1.784237 
-0.469673 0.177474 1.784291 
-0.454306 0.212557 2.828561 
-0.212339 0.454546 2.828502 
-0.463031 0.191519 3.252106 
-0.189483 0.463926 3.252078 
-0.316558 0.387334 0.168351 
-0.316617 0.387338 3.841928 
-0.352818 0.355661 3.314431 
-0.354800 0.354585 1.091453 
-0.092149 0.492526 0.717499 
-0.492547 0.092072 0.717391 
-0.448351 0.225768 2.234230 
-0.225735 0.448421 2.234175 
-0.422875 0.270185 2.495705 
-0.270011 0.423026 2.495682 
-0.493730 0.091288 1.903819 
-0.091377 0.493644 1.903739 
-0.098517 0.490352 3.885749 
-0.486369 0.116456 0.145764 
-0.485975 0.119166 0.279232 
-0.091781 0.491772 0.123628 
-0.483362 0.129323 3.854465 
0.355258 0.353257 0.692794 
0.354976 0.352812 0.225747 
0.354723 0.354827 1.393390 
0.354618 0.354262 0.926122 
0.354576 0.354641 1.127543 
0.354837 0.354900 1.663390 
0.354976 0.354986 1.917371 
0.354861 0.354814 2.789975 
0.355020 0.354960 2.388339 
0.354911 0.354850 2.616452 
0.355052 0.355029 2.155996 
0.354774 0.354737 2.926891 
0.341489 0.366633 3.335872 
0.354009 0.354004 3.608634 
0.457796 0.201634 3.790018 
0.201622 0.457801 3.790009 
0.473604 0.162126 3.632672 
0.162115 0.473604 3.632664 
0.469013 0.175181 0.335402 
0.177937 0.467920 0.335264 
0.191896 0.463593 1.401062 
0.463517 0.192000 1.401106 
0.189359 0.464969 2.034450 
0.465000 0.189371 2.034434 
0.479213 0.149214 2.580209 
0.149280 0.479160 2.580206 
0.150665 0.478407 2.994897 
0.478443 0.150658 2.994944 
0.186790 0.464665 3.456635 
0.464699 0.186858 3.456587 
0.463426 0.191952 1.258770 
0.191855 0.463474 1.258719 
0.191950 0.463683 1.545748 
0.463573 0.192036 1.545728 
0.453468 0.213466 3.215468 
0.164846 0.473346 3.238820 
[...]
POINT_DATA 507
SCALARS u float 1
LOOKUP_TABLE default
0.009236
0.009306
0.009181
0.009142
0.009106
0.009108
0.009265
0.009308
0.009249
0.009282
0.009289
0.009265
0.009249
0.009214
0.009139
0.009101
0.009124
0.009134
0.009143
0.009202
0.009092
0.009072
0.009078
0.009129
0.009153
0.009216
0.009299
0.009301
0.009334
0.009259
0.009189
0.009137
0.009125
0.008805
0.008224
0.007466
0.006562
0.005485
0.004288
0.003008
0.001766
0.001102
0.001833
0.003040
0.004278
0.005509
0.006538
0.007434
0.008144
0.008688
0.008999
0.009062
0.008745
0.008212
0.007445
0.006537
0.005470
0.004312
0.003046
0.001831
0.001135
0.001792
0.003005
0.004264
0.005485
0.006550
0.007469
0.008250
0.008806
0.009161
0.009186
0.008872
0.008309
0.007489
0.006564
0.005499
0.004306
0.002973
0.001740
0.001117
0.001862
0.003053
0.004287
0.005503
0.006492
0.007400
0.008202
0.008710
0.009000
0.009026
0.008698
0.008152
0.007407
0.006529
0.005494
0.004327
0.003061
0.001839
0.001135
0.001769
0.002984
0.004245
0.005450
0.006564
0.007497
0.008279
0.008878
0.009209
0.007996
0.009139
0.003772
0.006855
0.002515
0.005435
0.001241
0.005448
0.003009
0.004417
0.001619
0.006237
0.008014
0.008812
0.009122
0.009030
0.008879
0.008788
0.008935
0.008996
0.005452
0.005450
0.001156
0.001158
0.004194
0.004223
0.006550
0.006590
0.008426
0.008462
0.007571
0.007644
0.008433
0.008414
0.007558
0.007451
0.006262
0.006230
0.004607
0.004600
0.003318
0.003332
0.001911
0.001864
0.003005
0.003040
0.005467
0.005475
0.008679
0.009129
0.007200
0.006910
0.002029
0.002054
0.001320
0.001275
0.009217
0.009080
0.003662
0.003691
0.009195
0.009241
0.007523
0.008810
0.008197
0.002591
0.003766
0.005290
0.006528
0.001382
0.005446
0.004321
0.003313
0.001213
0.006514
0.007780
0.009020
0.008344
0.009191
0.008994
0.009219
0.009031
0.001629
0.001620
0.007381
0.007370
0.001141
0.001145
0.004219
0.004204
0.006552
0.006553
0.008643
0.008688
0.008860
0.008762
0.008171
0.008197
0.008034
0.008046
0.007202
0.007208
0.006520
0.006544
0.004750
0.004748
0.003389
0.003384
0.002128
0.002132
0.005476
0.005489
0.009252
0.009045
0.002017
0.002853
0.002862
0.007008
0.006997
0.009243
0.009113
0.005731
0.005736
0.009071
0.008957
0.009293
0.009095
0.007847
0.008301
0.008864
0.003905
0.002572
0.006996
0.005152
0.005508
0.001259
0.001579
0.004441
0.002966
0.007357
0.006526
0.008855
0.008420
0.009057
0.009076
0.009168
0.009050
0.008823
0.009020
0.008428
0.008478
0.006531
0.006562
0.007422
0.007378
0.001146
0.001132
0.004188
0.004208
0.006904
0.006925
0.008738
0.008719
0.008167
0.008217
0.005742
0.005749
0.002967
0.003021
0.004652
0.004628
0.003379
0.003362
0.001902
0.001945
0.005712
0.005753
0.007748
0.007721
0.009101
0.009133
0.007994
0.006157
0.007858
0.007800
0.001982
0.002021
0.003651
0.003667
0.001347
0.001292
0.009089
0.009095
0.008953
0.009187
0.009238
0.008034
0.009170
0.004390
0.006998
0.005969
0.002603
0.001219
0.005482
0.003030
0.004433
0.001652
0.006214
0.007980
0.008759
0.008993
0.008998
0.008759
0.008764
0.009016
0.008977
0.004318
0.004337
0.001140
0.001159
0.004218
0.004216
0.006577
0.006554
0.008362
0.008389
0.005222
0.005196
0.003389
0.003367
0.007507
0.007633
0.008498
0.008450
0.007575
0.007576
0.006450
0.006451
0.001891
0.001866
0.003051
0.003038
0.005490
0.005490
0.008726
0.009051
0.007172
0.006876
0.002095
0.002077
0.001282
0.001272
0.007027
0.007034
0.009066
0.009053
0.003690
0.003687
0.009269
0.009225
0.009465
0.009384
0.009379
0.009402
0.009356
0.009303
0.009457
0.009377
0.009357
0.009363
0.009406
0.009264
0.009283
0.009354
0.009289
0.009401
0.009256
0.009443
0.009423
0.009448
0.009428
0.009366
0.009254
0.009227
0.009381
0.009446
0.009437
0.009342
0.009396
0.009310
0.009416
0.009319
0.009382
0.009355
0.009380
0.009272
0.009396
0.009271
0.009320
0.009407
0.009329
0.009255
0.009443
0.009426
0.009437
0.009383
0.009275
0.009336
0.009376
0.009258
0.007536
0.005777
0.009325
0.009273
0.009322
0.009038
0.009273
0.009191
0.009221
0.008951
0.009213
0.008905
0.009260
0.008996
0.009222
0.008920
0.008911
0.007652
0.005930
0.003766
0.001416
0.001266
0.003626
0.007851
0.007094
0.003024
0.003042
0.004176
0.005260
0.005256
0.006229
0.007877
0.008465
0.008490
0.007840
0.007110
0.008436
0.001876
0.001874
0.000818
0.001853
0.001798
0.001797
0.006241
0.008003
0.009294
0.009342
0.009356
0.009031
0.008888
0.001005
0.000901
0.005276
0.003082
0.007239
0.007226
0.007993
0.007276
0.008017
0.007988
0.002023
0.002028
0.007078
0.006213
0.009022
0.009085
0.008590
0.005251
0.009295
0.009322
0.009337
0.009328
0.001809
0.001806
0.007142
0.007196
0.003274
0.007335
0.006280
0.001868
0.001863
0.000799
0.003042
0.000948
0.003201
0.003227
0.003236
0.004370
0.002059
