# vtk DataFile Version 2.0
Unstructured Grid Example
ASCII
DATASET UNSTRUCTURED_GRID
POINTS 507 float
-0.000491 0.499587 -0.042004 
0.499206 -0.000209 -0.042317 
-0.000551 -0.499942 -0.041752 
-0.500232 -0.000196 -0.041576 
0.000339 0.500188 4.041412 
0.500197 0.000264 4.041422 
0.000424 -0.499535 4.042132 
-0.499323 0.000313 4.042329 
0.190784 0.461658 -0.042060 
0.352884 0.353248 -0.042209 
0.461303 0.191107 -0.042241 
0.461292 -0.191456 -0.042132 
0.352897 -0.353541 -0.042061 
0.190772 -0.461997 -0.041902 
-0.191826 -0.461943 -0.041561 
-0.353902 -0.353681 -0.041393 
-0.462209 -0.191509 -0.041495 
-0.462220 0.191124 -0.041540 
-0.353955 0.353209 -0.041581 
-0.191790 0.461551 -0.041848 
0.191631 0.462162 4.041348 
0.353868 0.353830 4.041258 
0.462186 0.191596 4.041288 
0.462177 -0.190990 4.041518 
0.353899 -0.353203 4.041626 
0.191719 -0.461510 4.041913 
-0.190849 -0.461498 4.042289 
-0.352919 -0.353216 4.042295 
-0.461252 -0.191041 4.042444 
-0.461331 0.191626 4.042107 
-0.353073 0.353757 4.041791 
-0.190918 0.462107 4.041554 
-0.000321 0.499094 0.158509 
-0.000151 0.498347 0.359987 
0.000124 0.497649 0.562668 
0.000189 0.497039 0.766174 
0.000329 0.496515 0.970363 
0.000336 0.496033 1.175372 
0.000367 0.495618 1.380998 
0.000294 0.495327 1.587143 
0.000201 0.495120 1.793621 
0.000070 0.494989 2.000025 
-0.000099 0.494948 2.206629 
-0.000253 0.495153 2.412949 
-0.000319 0.495497 2.618926 
-0.000305 0.495671 2.824675 
-0.000205 0.496146 3.029484 
-0.000307 0.496749 3.233654 
-0.000125 0.497796 3.436976 
0.000051 0.498318 3.639479 
0.000194 0.499286 3.840923 
-0.000331 -0.499306 0.158790 
-0.000142 -0.498410 0.360257 
0.000076 -0.497698 0.562724 
0.000286 -0.496978 0.766276 
0.000311 -0.496324 0.970499 
0.000407 -0.495783 1.175486 
0.000345 -0.495280 1.380966 
0.000288 -0.495028 1.587074 
0.000179 -0.494888 1.793427 
0.000020 -0.494841 1.999903 
-0.000108 -0.495011 2.206445 
-0.000250 -0.495295 2.412827 
-0.000321 -0.495708 2.618910 
-0.000339 -0.496027 2.824626 
-0.000332 -0.496508 3.029584 
-0.000231 -0.497139 3.233851 
-0.000055 -0.497787 3.437455 
0.000026 -0.498374 3.640016 
0.000229 -0.499010 3.841654 
0.498823 -0.000124 0.158238 
0.498258 -0.000115 0.359686 
0.497562 -0.000022 0.562290 
0.497292 0.000012 0.766049 
0.496598 0.000119 0.970341 
0.496161 0.000098 1.175287 
0.495782 0.000206 1.380878 
0.495519 0.000160 1.587242 
0.495209 0.000115 1.793705 
0.494922 0.000054 2.000174 
0.494858 -0.000018 2.206730 
0.495036 -0.000117 2.412969 
0.495329 -0.000161 2.618928 
0.495562 -0.000129 2.824630 
0.496093 -0.000154 3.029266 
0.496938 -0.000206 3.233515 
0.497669 -0.000149 3.437230 
0.498346 0.000040 3.639580 
0.499321 0.000184 3.840929 
-0.499494 -0.000162 0.158951 
-0.498493 -0.000088 0.360468 
-0.497714 -0.000039 0.562996 
-0.496924 0.000081 0.766451 
-0.496139 0.000116 0.970556 
-0.495551 0.000186 1.175412 
-0.495150 0.000209 1.380928 
-0.494949 0.000182 1.587028 
-0.494879 0.000115 1.793387 
-0.494843 0.000068 1.999815 
-0.495068 0.000006 2.206359 
-0.495395 -0.000046 2.412764 
-0.495809 -0.000138 2.618844 
-0.496086 -0.000139 2.824478 
-0.496593 -0.000263 3.029658 
-0.497243 -0.000166 3.233984 
-0.497963 -0.000146 3.437597 
-0.498208 -0.000058 3.640340 
-0.498796 0.000153 3.841868 
0.350795 -0.352795 0.644511 
0.351580 -0.354138 0.167159 
0.350657 -0.350136 1.461218 
0.351368 -0.351319 0.902523 
0.350323 -0.349929 1.668894 
0.350850 -0.350338 1.186754 
0.350064 -0.349881 1.918536 
0.350436 -0.350885 2.824438 
0.349895 -0.350253 2.406366 
0.350172 -0.350675 2.644065 
0.349923 -0.350005 2.164946 
0.350559 -0.350982 2.966401 
0.363957 -0.339276 3.387030 
0.352487 -0.352453 3.664947 
0.201431 -0.456617 3.848207 
0.457009 -0.201088 3.847790 
0.161634 -0.471736 3.689301 
0.471678 -0.161439 3.688879 
0.174265 -0.467185 0.278048 
0.465901 -0.177331 0.277708 
0.190083 -0.457888 1.178346 
0.458407 -0.189583 1.178308 
0.186690 -0.458315 2.038134 
0.458367 -0.186639 2.038285 
0.146947 -0.473324 2.606377 
0.472866 -0.147452 2.606442 
0.473189 -0.149213 3.036559 
0.148736 -0.473627 3.036777 
0.461958 -0.185829 3.510421 
0.185706 -0.462067 3.510586 
0.211431 -0.449947 3.263679 
0.469505 -0.163633 3.287603 
0.458833 -0.192675 0.507433 
0.190344 -0.459931 0.507909 
0.470021 -0.162616 0.764783 
0.162045 -0.469952 0.765350 
0.460681 -0.185266 1.029478 
0.185530 -0.460294 1.029668 
0.189991 -0.457636 1.328150 
0.458125 -0.189471 1.328128 
0.457853 -0.189308 1.536157 
0.189834 -0.457428 1.536152 
0.175228 -0.462884 1.775400 
0.463209 -0.174935 1.775515 
0.180950 -0.460952 2.408854 
0.460616 -0.181340 2.408964 
0.189492 -0.458365 2.824028 
0.457847 -0.189933 2.824012 
0.347908 -0.356391 0.417709 
0.353379 -0.352905 3.908048 
0.374174 -0.326775 3.176949 
0.278489 -0.411141 3.111005 
0.222473 -0.442177 2.244992 
0.442014 -0.222639 2.245078 
0.090126 -0.486622 1.899672 
0.486798 -0.089957 1.899829 
0.100463 -0.489075 3.943595 
0.489593 -0.099930 3.942977 
0.266350 -0.417658 2.518318 
0.417221 -0.266796 2.518419 
0.187754 -0.462809 0.079415 
0.461825 -0.189218 0.079201 
-0.351422 -0.351581 0.736462 
-0.363821 -0.341338 0.290562 
-0.351901 -0.351960 0.551877 
-0.349849 -0.349942 1.669318 
-0.349984 -0.350111 1.472032 
-0.350253 -0.350461 1.209423 
-0.350743 -0.350955 0.970456 
-0.349887 -0.349889 1.894392 
-0.350884 -0.350721 2.824459 
-0.350676 -0.350526 2.629619 
-0.350434 -0.350289 2.465501 
-0.350002 -0.349943 2.073798 
-0.351241 -0.351104 3.019018 
-0.351759 -0.351747 3.300222 
-0.363411 -0.341135 3.710004 
-0.352101 -0.352038 3.455662 
-0.469061 -0.169399 3.814229 
-0.469670 -0.169725 0.186024 
-0.251850 -0.430643 3.852703 
-0.258169 -0.427651 0.141380 
-0.205632 -0.450273 2.178711 
-0.450349 -0.205531 2.178679 
-0.147507 -0.474540 0.776446 
-0.474433 -0.147732 0.776496 
-0.163728 -0.466967 1.987909 
-0.466965 -0.163694 1.987856 
-0.175159 -0.463844 2.613111 
-0.463964 -0.174986 2.613056 
-0.458812 -0.190113 3.025965 
-0.190248 -0.458704 3.025961 
-0.459336 -0.193698 0.366037 
-0.213177 -0.450604 0.361136 
-0.459052 -0.193573 3.631252 
-0.183159 -0.463367 3.609280 
-0.459675 -0.190834 0.558819 
-0.190759 -0.459700 0.558704 
-0.460668 -0.188567 3.375997 
-0.186815 -0.461243 3.372451 
-0.189761 -0.459337 3.163751 
-0.459311 -0.189976 3.164382 
-0.461733 -0.181566 0.971643 
-0.181345 -0.461910 0.971526 
-0.450955 -0.204612 1.308121 
-0.204430 -0.451108 1.308117 
-0.457271 -0.189301 1.536190 
-0.189179 -0.457382 1.536197 
-0.185025 -0.458969 1.744641 
-0.458926 -0.185094 1.744628 
-0.458254 -0.189853 2.824586 
-0.190044 -0.458124 2.824637 
-0.386210 -0.315799 3.889181 
-0.386866 -0.316278 0.111394 
-0.350164 -0.350049 2.254234 
-0.467481 -0.163838 2.392864 
-0.164015 -0.467372 2.392889 
-0.267149 -0.418649 0.861924 
-0.418478 -0.267344 0.861976 
-0.113278 -0.486115 3.909878 
-0.116882 -0.485776 0.087833 
-0.440953 -0.226427 1.126933 
-0.226219 -0.441207 1.126887 
-0.111198 -0.486206 3.769703 
-0.119625 -0.484481 0.223206 
-0.490514 -0.091600 3.935365 
-0.491301 -0.091989 0.065364 
-0.351575 0.351738 0.668114 
-0.352033 0.352005 0.527295 
-0.341465 0.363532 0.286213 
-0.349951 0.350469 1.447931 
-0.349841 0.350254 1.665318 
-0.350932 0.351272 0.879879 
-0.350172 0.350728 1.235014 
-0.350865 0.350419 2.824711 
-0.349880 0.350066 1.917574 
-0.350040 0.350001 2.164609 
-0.350784 0.350307 2.643788 
-0.350385 0.350102 2.407144 
-0.351553 0.351166 3.202064 
-0.351241 0.350673 3.017212 
-0.342827 0.361904 3.686077 
-0.349757 0.354301 3.505942 
-0.193890 0.459965 3.851737 
-0.169883 0.469244 0.184965 
-0.419051 0.271248 3.887506 
-0.428270 0.256972 0.140564 
-0.154250 0.474166 3.697440 
-0.468611 0.170446 3.747016 
-0.207019 0.452896 3.510586 
-0.449650 0.213786 3.511298 
-0.442008 0.225516 0.972151 
-0.225050 0.442414 0.971989 
-0.182266 0.462315 0.780590 
-0.462111 0.182568 0.780795 
-0.458320 0.186727 2.037626 
-0.186663 0.458439 2.037729 
-0.473411 0.147154 2.606224 
-0.147625 0.473066 2.606269 
-0.456912 0.194854 3.105177 
-0.194993 0.456548 3.105229 
-0.193762 0.459215 0.365960 
-0.451806 0.210659 0.356497 
-0.465214 0.176809 0.560469 
-0.176728 0.465207 0.560243 
-0.455369 0.196011 1.128230 
-0.195469 0.455878 1.128158 
-0.461082 0.181193 2.408838 
-0.181452 0.460740 2.409013 
-0.457473 0.189827 1.324743 
-0.189293 0.458038 1.324786 
-0.457307 0.189727 1.532958 
-0.189217 0.457736 1.532978 
-0.174840 0.463146 1.774248 
-0.462849 0.175194 1.774118 
-0.449562 0.209911 2.864751 
-0.210295 0.449043 2.864889 
-0.459750 0.189746 3.301606 
-0.188407 0.460159 3.301387 
-0.316481 0.386344 0.110052 
-0.315691 0.386861 3.900429 
-0.350727 0.353001 3.365532 
-0.350502 0.351030 1.052402 
-0.091232 0.488936 0.667295 
-0.488887 0.091420 0.667560 
-0.442273 0.222616 2.244926 
-0.222697 0.442101 2.245059 
-0.417763 0.266534 2.518232 
-0.266961 0.417393 2.518287 
-0.486586 0.090136 1.899123 
-0.089917 0.486798 1.899317 
-0.097975 0.489932 3.943975 
-0.486059 0.116022 0.087500 
-0.484798 0.118576 0.221892 
-0.092214 0.490768 0.064780 
-0.482044 0.129409 3.913633 
0.352932 0.350716 0.641439 
0.353646 0.351782 0.167026 
0.350691 0.350436 1.365903 
0.351690 0.351078 0.881496 
0.351051 0.350892 1.089648 
0.350412 0.350257 1.648000 
0.350073 0.350048 1.913820 
0.350354 0.350467 2.824535 
0.349963 0.350111 2.406444 
0.350230 0.350381 2.644103 
0.349885 0.349942 2.163706 
0.350565 0.350656 2.966264 
0.339135 0.363956 3.386870 
0.352438 0.352452 3.664707 
0.457010 0.201423 3.847628 
0.201454 0.456997 3.847651 
0.471668 0.161549 3.688751 
0.161577 0.471670 3.688771 
0.466873 0.174397 0.277684 
0.176956 0.466042 0.277794 
0.189985 0.457893 1.374059 
0.458079 0.189731 1.373950 
0.186736 0.458410 2.036294 
0.458335 0.186708 2.036332 
0.472974 0.147144 2.606419 
0.146982 0.473105 2.606425 
0.148893 0.473288 3.036684 
0.473201 0.148909 3.036569 
0.185769 0.462089 3.510131 
0.462007 0.185603 3.510249 
0.458303 0.189848 1.225776 
0.190085 0.458185 1.225900 
0.189853 0.457672 1.524994 
0.457942 0.189642 1.525044 
0.449823 0.211502 3.263383 
[...]
POINT_DATA 507
SCALARS u float 1
LOOKUP_TABLE default
0.009236
0.009306
0.009181
0.009142
0.009106
0.009108
0.009265
0.009308
0.009249
0.009282
0.009289
0.009265
0.009249
0.009214
0.009139
0.009101
0.009124
0.009134
0.009143
0.009202
0.009092
0.009072
0.009078
0.009129
0.009153
0.009216
0.009299
0.009301
0.009334
0.009259
0.009189
0.009137
0.009125
0.008805
0.008224
0.007466
0.006562
0.005485
0.004288
0.003008
0.001766
0.001102
0.001833
0.003040
0.004278
0.005509
0.006538
0.007434
0.008144
0.008688
0.008999
0.009062
0.008745
0.008212
0.007445
0.006537
0.005470
0.004312
0.003046
0.001831
0.001135
0.001792
0.003005
0.004264
0.005485
0.006550
0.007469
0.008250
0.008806
0.009161
0.009186
0.008872
0.008309
0.007489
0.006564
0.005499
0.004306
0.002973
0.001740
0.001117
0.001862
0.003053
0.004287
0.005503
0.006492
0.007400
0.008202
0.008710
0.009000
0.009026
0.008698
0.008152
0.007407
0.006529
0.005494
0.004327
0.003061
0.001839
0.001135
0.001769
0.002984
0.004245
0.005450
0.006564
0.007497
0.008279
0.008878
0.009209
0.007996
0.009139
0.003772
0.006855
0.002515
0.005435
0.001241
0.005448
0.003009
0.004417
0.001619
0.006237
0.008014
0.008812
0.009122
0.009030
0.008879
0.008788
0.008935
0.008996
0.005452
0.005450
0.001156
0.001158
0.004194
0.004223
0.006550
0.006590
0.008426
0.008462
0.007571
0.007644
0.008433
0.008414
0.007558
0.007451
0.006262
0.006230
0.004607
0.004600
0.003318
0.003332
0.001911
0.001864
0.003005
0.003040
0.005467
0.005475
0.008679
0.009129
0.007200
0.006910
0.002029
0.002054
0.001320
0.001275
0.009217
0.009080
0.003662
0.003691
0.009195
0.009241
0.007523
0.008810
0.008197
0.002591
0.003766
0.005290
0.006528
0.001382
0.005446
0.004321
0.003313
0.001213
0.006514
0.007780
0.009020
0.008344
0.009191
0.008994
0.009219
0.009031
0.001629
0.001620
0.007381
0.007370
0.001141
0.001145
0.004219
0.004204
0.006552
0.006553
0.008643
0.008688
0.008860
0.008762
0.008171
0.008197
0.008034
0.008046
0.007202
0.007208
0.006520
0.006544
0.004750
0.004748
0.003389
0.003384
0.002128
0.002132
0.005476
0.005489
0.009252
0.009045
0.002017
0.002853
0.002862
0.007008
0.006997
0.009243
0.009113
0.005731
0.005736
0.009071
0.008957
0.009293
0.009095
0.007847
0.008301
0.008864
0.003905
0.002572
0.006996
0.005152
0.005508
0.001259
0.001579
0.004441
0.002966
0.007357
0.006526
0.008855
0.008420
0.009057
0.009076
0.009168
0.009050
0.008823
0.009020
0.008428
0.008478
0.006531
0.006562
0.007422
0.007378
0.001146
0.001132
0.004188
0.004208
0.006904
0.006925
0.008738
0.008719
0.008167
0.008217
0.005742
0.005749
0.002967
0.003021
0.004652
0.004628
0.003379
0.003362
0.001902
0.001945
0.005712
0.005753
0.007748
0.007721
0.009101
0.009133
0.007994
0.006157
0.007858
0.007800
0.001982
0.002021
0.003651
0.003667
0.001347
0.001292
0.009089
0.009095
0.008953
0.009187
0.009238
0.008034
0.009170
0.004390
0.006998
0.005969
0.002603
0.001219
0.005482
0.003030
0.004433
0.001652
0.006214
0.007980
0.008759
0.008993
0.008998
0.008759
0.008764
0.009016
0.008977
0.004318
0.004337
0.001140
0.001159
0.004218
0.004216
0.006577
0.006554
0.008362
0.008389
0.005222
0.005196
0.003389
0.003367
0.007507
0.007633
0.008498
0.008450
0.007575
0.007576
0.006450
0.006451
0.001891
0.001866
0.003051
0.003038
0.005490
0.005490
0.008726
0.009051
0.007172
0.006876
0.002095
0.002077
0.001282
0.001272
0.007027
0.007034
0.009066
0.009053
0.003690
0.003687
0.009269
0.009225
0.009465
0.009384
0.009379
0.009402
0.009356
0.009303
0.009457
0.009377
0.009357
0.009363
0.009406
0.009264
0.009283
0.009354
0.009289
0.009401
0.009256
0.009443
0.009423
0.009448
0.009428
0.009366
0.009254
0.009227
0.009381
0.009446
0.009437
0.009342
0.009396
0.009310
0.009416
0.009319
0.009382
0.009355
0.009380
0.009272
0.009396
0.009271
0.009320
0.009407
0.009329
0.009255
0.009443
0.009426
0.009437
0.009383
0.009275
0.009336
0.009376
0.009258
0.007536
0.005777
0.009325
0.009273
0.009322
0.009038
0.009273
0.009191
0.009221
0.008951
0.009213
0.008905
0.009260
0.008996
0.009222
0.008920
0.008911
0.007652
0.005930
0.003766
0.001416
0.001266
0.003626
0.007851
0.007094
0.003024
0.003042
0.004176
0.005260
0.005256
0.006229
0.007877
0.008465
0.008490
0.007840
0.007110
0.008436
0.001876
0.001874
0.000818
0.001853
0.001798
0.001797
0.006241
0.008003
0.009294
0.009342
0.009356
0.009031
0.008888
0.001005
0.000901
0.005276
0.003082
0.007239
0.007226
0.007993
0.007276
0.008017
0.007988
0.002023
0.002028
0.007078
0.006213
0.009022
0.009085
0.008590
0.005251
0.009295
0.009322
0.009337
0.009328
0.001809
0.001806
0.007142
0.007196
0.003274
0.007335
0.006280
0.001868
0.001863
0.000799
0.003042
0.000948
0.003201
0.003227
0.003236
0.004370
0.002059
