# vtk DataFile Version 2.0
Unstructured Grid Example
ASCII
DATASET UNSTRUCTURED_GRID
POINTS 507 float
-0.000539 0.499546 -0.046124 
0.499128 -0.000230 -0.046468 
-0.000606 -0.499936 -0.045848 
-0.500255 -0.000215 -0.045655 
0.000373 0.500206 4.045475 
0.500216 0.000290 4.045486 
0.000466 -0.499490 4.046265 
-0.499257 0.000343 4.046482 
0.190729 0.461630 -0.046186 
0.352819 0.353218 -0.046349 
0.461241 0.191084 -0.046385 
0.461229 -0.191468 -0.046265 
0.352833 -0.353540 -0.046188 
0.190717 -0.462002 -0.046013 
-0.191874 -0.461943 -0.045638 
-0.353936 -0.353693 -0.045454 
-0.462236 -0.191525 -0.045566 
-0.462248 0.191103 -0.045615 
-0.353995 0.353175 -0.045660 
-0.191834 0.461513 -0.045954 
0.191660 0.462184 4.045404 
0.353899 0.353857 4.045306 
0.462210 0.191621 4.045338 
0.462201 -0.190955 4.045591 
0.353933 -0.353168 4.045710 
0.191756 -0.461468 4.046025 
-0.190801 -0.461454 4.046438 
-0.352856 -0.353183 4.046445 
-0.461184 -0.191012 4.046608 
-0.461272 0.191654 4.046238 
-0.353026 0.353777 4.045891 
-0.190877 0.462124 4.045630 
-0.000353 0.499005 0.154438 
-0.000166 0.498185 0.356062 
0.000136 0.497419 0.559006 
0.000208 0.496749 0.762856 
0.000361 0.496173 0.967455 
0.000369 0.495644 1.172956 
0.000402 0.495188 1.379134 
0.000323 0.494868 1.585882 
0.000221 0.494641 1.792995 
0.000076 0.494497 2.000027 
-0.000109 0.494452 2.207279 
-0.000277 0.494678 2.414219 
-0.000350 0.495055 2.620782 
-0.000335 0.495246 2.827096 
-0.000225 0.495768 3.032376 
-0.000337 0.496431 3.236956 
-0.000138 0.497580 3.440603 
0.000056 0.498152 3.643352 
0.000213 0.499216 3.844938 
-0.000364 -0.499238 0.154747 
-0.000156 -0.498254 0.356358 
0.000084 -0.497472 0.559067 
0.000314 -0.496681 0.762968 
0.000341 -0.495963 0.967605 
0.000447 -0.495369 1.173081 
0.000378 -0.494817 1.379099 
0.000316 -0.494541 1.585805 
0.000197 -0.494386 1.792782 
0.000022 -0.494335 1.999893 
-0.000119 -0.494522 2.207078 
-0.000274 -0.494833 2.414086 
-0.000353 -0.495287 2.620765 
-0.000373 -0.495638 2.827042 
-0.000364 -0.496165 3.032486 
-0.000254 -0.496859 3.237171 
-0.000061 -0.497570 3.441129 
0.000028 -0.498214 3.643942 
0.000251 -0.498912 3.845740 
0.498707 -0.000137 0.154141 
0.498087 -0.000127 0.355732 
0.497323 -0.000024 0.558590 
0.497027 0.000013 0.762718 
0.496265 0.000131 0.967431 
0.495785 0.000108 1.172863 
0.495368 0.000226 1.379003 
0.495080 0.000176 1.585990 
0.494739 0.000126 1.793087 
0.494424 0.000060 2.000191 
0.494354 -0.000019 2.207390 
0.494549 -0.000129 2.414242 
0.494871 -0.000177 2.620785 
0.495127 -0.000142 2.827046 
0.495709 -0.000169 3.032137 
0.496637 -0.000226 3.236803 
0.497440 -0.000164 3.440882 
0.498183 0.000044 3.643463 
0.499254 0.000203 3.844944 
-0.499445 -0.000178 0.154924 
-0.498345 -0.000097 0.356590 
-0.497489 -0.000043 0.559365 
-0.496623 0.000089 0.763160 
-0.495760 0.000127 0.967668 
-0.495114 0.000204 1.173000 
-0.494675 0.000229 1.379057 
-0.494453 0.000200 1.585756 
-0.494376 0.000126 1.792738 
-0.494337 0.000074 1.999797 
-0.494584 0.000007 2.206983 
-0.494943 -0.000051 2.414016 
-0.495398 -0.000152 2.620693 
-0.495702 -0.000153 2.826879 
-0.496259 -0.000289 3.032567 
-0.496973 -0.000182 3.237317 
-0.497763 -0.000160 3.441285 
-0.498033 -0.000064 3.644298 
-0.498678 0.000168 3.845976 
0.350625 -0.352619 0.640952 
0.351488 -0.354093 0.163083 
0.350373 -0.349800 1.459594 
0.351175 -0.351079 0.899480 
0.350006 -0.349573 1.667878 
0.350585 -0.350022 1.184364 
0.349722 -0.349520 1.918292 
0.350130 -0.350623 2.826835 
0.349536 -0.349929 2.407618 
0.349840 -0.350393 2.645987 
0.349567 -0.349657 2.165469 
0.350266 -0.350729 2.969156 
0.363770 -0.339125 3.390598 
0.352382 -0.352345 3.668876 
0.201417 -0.456523 3.852276 
0.456954 -0.201041 3.851818 
0.161602 -0.471607 3.693261 
0.471544 -0.161388 3.692798 
0.174197 -0.467067 0.274064 
0.465757 -0.177300 0.273697 
0.189960 -0.457490 1.175950 
0.458060 -0.189411 1.175907 
0.186503 -0.457848 2.038252 
0.457906 -0.186447 2.038417 
0.146784 -0.472923 2.608198 
0.472420 -0.147338 2.608270 
0.472823 -0.149121 3.039457 
0.148597 -0.473304 3.039696 
0.461766 -0.185764 3.514175 
0.185628 -0.461886 3.514356 
0.211287 -0.449705 3.267045 
0.469240 -0.163559 3.291003 
0.458619 -0.192589 0.503677 
0.190256 -0.459729 0.504162 
0.469779 -0.162524 0.761421 
0.161980 -0.469675 0.762037 
0.460375 -0.185115 1.026704 
0.185428 -0.459941 1.026913 
0.189858 -0.457214 1.326143 
0.457750 -0.189287 1.326119 
0.457452 -0.189108 1.534746 
0.189686 -0.456985 1.534741 
0.175073 -0.462413 1.774708 
0.462769 -0.174751 1.774833 
0.180752 -0.460524 2.410108 
0.460154 -0.181181 2.410229 
0.189310 -0.458014 2.826435 
0.457445 -0.189795 2.826418 
0.347768 -0.356260 0.413842 
0.353362 -0.352841 3.912121 
0.373920 -0.326585 3.180146 
0.278278 -0.410879 3.114070 
0.222240 -0.441744 2.245752 
0.441565 -0.222421 2.245847 
0.090045 -0.486128 1.899362 
0.486322 -0.089860 1.899534 
0.100482 -0.489000 3.947706 
0.489568 -0.099896 3.947028 
0.266078 -0.417292 2.519887 
0.416812 -0.266568 2.519998 
0.187690 -0.462776 0.075313 
0.461731 -0.189211 0.075080 
-0.351213 -0.351387 0.733117 
-0.363748 -0.341255 0.286633 
-0.351739 -0.351804 0.548226 
-0.349485 -0.349588 1.668279 
-0.349633 -0.349773 1.470423 
-0.349929 -0.350157 1.207104 
-0.350468 -0.350700 0.967568 
-0.349527 -0.349529 1.894043 
-0.350622 -0.350443 2.826859 
-0.350394 -0.350229 2.631503 
-0.350128 -0.349968 2.466911 
-0.349654 -0.349589 2.074013 
-0.351015 -0.350864 3.021906 
-0.351583 -0.351570 3.303684 
-0.363297 -0.341032 3.714025 
-0.351958 -0.351890 3.459379 
-0.468945 -0.169350 3.818328 
-0.469614 -0.169705 0.182012 
-0.251777 -0.430559 3.856814 
-0.258163 -0.427601 0.137351 
-0.205435 -0.449824 2.179248 
-0.449908 -0.205324 2.179212 
-0.147392 -0.474261 0.773166 
-0.474144 -0.147640 0.773222 
-0.163560 -0.466489 1.987855 
-0.466488 -0.163523 1.987798 
-0.175035 -0.463451 2.614948 
-0.463584 -0.174845 2.614888 
-0.458505 -0.189992 3.028870 
-0.190141 -0.458387 3.028865 
-0.459200 -0.193643 0.362183 
-0.213124 -0.450465 0.357263 
-0.458888 -0.193506 3.635201 
-0.183096 -0.463208 3.613185 
-0.459468 -0.190749 0.555181 
-0.190666 -0.459495 0.555053 
-0.460464 -0.188488 3.379575 
-0.186735 -0.461026 3.376034 
-0.189667 -0.459057 3.166951 
-0.459039 -0.189874 3.167585 
-0.461381 -0.181428 0.968759 
-0.181186 -0.461576 0.968630 
-0.450526 -0.204417 1.306054 
-0.204218 -0.450695 1.306050 
-0.456813 -0.189101 1.534763 
-0.188967 -0.456935 1.534771 
-0.184825 -0.458506 1.743836 
-0.458458 -0.184900 1.743823 
-0.457893 -0.189707 2.826997 
-0.189917 -0.457750 2.827054 
-0.386119 -0.315738 3.893308 
-0.386848 -0.316252 0.107358 
-0.349832 -0.349705 2.254996 
-0.467052 -0.163687 2.394053 
-0.163882 -0.466932 2.394081 
-0.266954 -0.418381 0.858815 
-0.418193 -0.267168 0.858872 
-0.113233 -0.486039 3.914001 
-0.116909 -0.485733 0.083768 
-0.440575 -0.226239 1.124411 
-0.226010 -0.440853 1.124361 
-0.111158 -0.486091 3.773749 
-0.119626 -0.484383 0.219210 
-0.490419 -0.091571 3.939510 
-0.491283 -0.091997 0.061306 
-0.351381 0.351560 0.664622 
-0.351883 0.351853 0.523597 
-0.341395 0.363430 0.282260 
-0.349597 0.350166 1.446252 
-0.349477 0.349930 1.664279 
-0.350675 0.351048 0.876777 
-0.349840 0.350451 1.232756 
-0.350601 0.350111 2.827135 
-0.349520 0.349724 1.917312 
-0.349696 0.349653 2.165115 
-0.350512 0.349988 2.645725 
-0.350074 0.349763 2.408385 
-0.351356 0.350932 3.205333 
-0.351015 0.350390 3.020101 
-0.342724 0.361800 3.690025 
-0.349620 0.354141 3.509693 
-0.193839 0.459897 3.855777 
-0.169879 0.469147 0.180917 
-0.418967 0.271229 3.891596 
-0.428239 0.256918 0.136527 
-0.154197 0.474042 3.701374 
-0.468483 0.170407 3.751038 
-0.206948 0.452709 3.514341 
-0.449472 0.213678 3.515075 
-0.441665 0.225371 0.969262 
-0.224859 0.442111 0.969083 
-0.182133 0.462046 0.777292 
-0.461822 0.182465 0.777517 
-0.457854 0.186543 2.037730 
-0.186473 0.457985 2.037843 
-0.473020 0.147011 2.608046 
-0.147528 0.472641 2.608095 
-0.456629 0.194698 3.108240 
-0.194881 0.456217 3.108298 
-0.193714 0.459067 0.362064 
-0.451680 0.210582 0.352609 
-0.465001 0.176726 0.556832 
-0.176638 0.464994 0.556584 
-0.454974 0.195878 1.125702 
-0.195282 0.455533 1.125623 
-0.460666 0.181019 2.410083 
-0.181304 0.460290 2.410275 
-0.457035 0.189678 1.322719 
-0.189092 0.457655 1.322767 
-0.456853 0.189569 1.531529 
-0.189009 0.457324 1.531551 
-0.174646 0.462700 1.773552 
-0.462374 0.175035 1.773410 
-0.449231 0.209726 2.867272 
-0.210153 0.448660 2.867423 
-0.459521 0.189623 3.305053 
-0.188333 0.459897 3.304821 
-0.316475 0.386275 0.105992 
-0.315627 0.386828 3.904503 
-0.350582 0.352816 3.369091 
-0.350203 0.350782 1.049682 
-0.091169 0.488686 0.663798 
-0.488632 0.091375 0.664089 
-0.441850 0.222397 2.245671 
-0.222486 0.441661 2.245817 
-0.417407 0.266280 2.519801 
-0.266748 0.417001 2.519861 
-0.486088 0.090055 1.898796 
-0.089815 0.486321 1.899010 
-0.097937 0.489902 3.948030 
-0.486037 0.115991 0.083443 
-0.484716 0.118535 0.217898 
-0.092244 0.490698 0.060681 
-0.481952 0.129415 3.917754 
0.352770 0.350539 0.637862 
0.353554 0.351710 0.162937 
0.350410 0.350131 1.363989 
0.351486 0.350857 0.878388 
0.350805 0.350631 1.087009 
0.350103 0.349934 1.646928 
0.349731 0.349704 1.913573 
0.350040 0.350164 2.826942 
0.349611 0.349773 2.407705 
0.349904 0.350069 2.646028 
0.349525 0.349588 2.164243 
0.350272 0.350372 2.969007 
0.338972 0.363770 3.390421 
0.352328 0.352343 3.668613 
0.456956 0.201409 3.851640 
0.201442 0.456942 3.851666 
0.471533 0.161509 3.692656 
0.161539 0.471535 3.692679 
0.466723 0.174342 0.273664 
0.176888 0.465911 0.273792 
0.189851 0.457496 1.372178 
0.457700 0.189573 1.372059 
0.186553 0.457954 2.036422 
0.457871 0.186522 2.036464 
0.472540 0.147000 2.608244 
0.146822 0.472683 2.608251 
0.148770 0.472931 3.039594 
0.472836 0.148788 3.039468 
0.185698 0.461910 3.513857 
0.461819 0.185515 3.513986 
0.457946 0.189702 1.223478 
0.189962 0.457817 1.223615 
0.189707 0.457254 1.523548 
0.457550 0.189475 1.523603 
0.449569 0.211365 3.266720 
[...]
POINT_DATA 507
SCALARS u float 1
LOOKUP_TABLE default
0.009236
0.009306
0.009181
0.009142
0.009106
0.009108
0.009265
0.009308
0.009249
0.009282
0.009289
0.009265
0.009249
0.009214
0.009139
0.009101
0.009124
0.009134
0.009143
0.009202
0.009092
0.009072
0.009078
0.009129
0.009153
0.009216
0.009299
0.009301
0.009334
0.009259
0.009189
0.009137
0.009125
0.008805
0.008224
0.007466
0.006562
0.005485
0.004288
0.003008
0.001766
0.001102
0.001833
0.003040
0.004278
0.005509
0.006538
0.007434
0.008144
0.008688
0.008999
0.009062
0.008745
0.008212
0.007445
0.006537
0.005470
0.004312
0.003046
0.001831
0.001135
0.001792
0.003005
0.004264
0.005485
0.006550
0.007469
0.008250
0.008806
0.009161
0.009186
0.008872
0.008309
0.007489
0.006564
0.005499
0.004306
0.002973
0.001740
0.001117
0.001862
0.003053
0.004287
0.005503
0.006492
0.007400
0.008202
0.008710
0.009000
0.009026
0.008698
0.008152
0.007407
0.006529
0.005494
0.004327
0.003061
0.001839
0.001135
0.001769
0.002984
0.004245
0.005450
0.006564
0.007497
0.008279
0.008878
0.009209
0.007996
0.009139
0.003772
0.006855
0.002515
0.005435
0.001241
0.005448
0.003009
0.004417
0.001619
0.006237
0.008014
0.008812
0.009122
0.009030
0.008879
0.008788
0.008935
0.008996
0.005452
0.005450
0.001156
0.001158
0.004194
0.004223
0.006550
0.006590
0.008426
0.008462
0.007571
0.007644
0.008433
0.008414
0.007558
0.007451
0.006262
0.006230
0.004607
0.004600
0.003318
0.003332
0.001911
0.001864
0.003005
0.003040
0.005467
0.005475
0.008679
0.009129
0.007200
0.006910
0.002029
0.002054
0.001320
0.001275
0.009217
0.009080
0.003662
0.003691
0.009195
0.009241
0.007523
0.008810
0.008197
0.002591
0.003766
0.005290
0.006528
0.001382
0.005446
0.004321
0.003313
0.001213
0.006514
0.007780
0.009020
0.008344
0.009191
0.008994
0.009219
0.009031
0.001629
0.001620
0.007381
0.007370
0.001141
0.001145
0.004219
0.004204
0.006552
0.006553
0.008643
0.008688
0.008860
0.008762
0.008171
0.008197
0.008034
0.008046
0.007202
0.007208
0.006520
0.006544
0.004750
0.004748
0.003389
0.003384
0.002128
0.002132
0.005476
0.005489
0.009252
0.009045
0.002017
0.002853
0.002862
0.007008
0.006997
0.009243
0.009113
0.005731
0.005736
0.009071
0.008957
0.009293
0.009095
0.007847
0.008301
0.008864
0.003905
0.002572
0.006996
0.005152
0.005508
0.001259
0.001579
0.004441
0.002966
0.007357
0.006526
0.008855
0.008420
0.009057
0.009076
0.009168
0.009050
0.008823
0.009020
0.008428
0.008478
0.006531
0.006562
0.007422
0.007378
0.001146
0.001132
0.004188
0.004208
0.006904
0.006925
0.008738
0.008719
0.008167
0.008217
0.005742
0.005749
0.002967
0.003021
0.004652
0.004628
0.003379
0.003362
0.001902
0.001945
0.005712
0.005753
0.007748
0.007721
0.009101
0.009133
0.007994
0.006157
0.007858
0.007800
0.001982
0.002021
0.003651
0.003667
0.001347
0.001292
0.009089
0.009095
0.008953
0.009187
0.009238
0.008034
0.009170
0.004390
0.006998
0.005969
0.002603
0.001219
0.005482
0.003030
0.004433
0.001652
0.006214
0.007980
0.008759
0.008993
0.008998
0.008759
0.008764
0.009016
0.008977
0.004318
0.004337
0.001140
0.001159
0.004218
0.004216
0.006577
0.006554
0.008362
0.008389
0.005222
0.005196
0.003389
0.003367
0.007507
0.007633
0.008498
0.008450
0.007575
0.007576
0.006450
0.006451
0.001891
0.001866
0.003051
0.003038
0.005490
0.005490
0.008726
0.009051
0.007172
0.006876
0.002095
0.002077
0.001282
0.001272
0.007027
0.007034
0.009066
0.009053
0.003690
0.003687
0.009269
0.009225
0.009465
0.009384
0.009379
0.009402
0.009356
0.009303
0.009457
0.009377
0.009357
0.009363
0.009406
0.009264
0.009283
0.009354
0.009289
0.009401
0.009256
0.009443
0.009423
0.009448
0.009428
0.009366
0.009254
0.009227
0.009381
0.009446
0.009437
0.009342
0.009396
0.009310
0.009416
0.009319
0.009382
0.009355
0.009380
0.009272
0.009396
0.009271
0.009320
0.009407
0.009329
0.009255
0.009443
0.009426
0.009437
0.009383
0.009275
0.009336
0.009376
0.009258
0.007536
0.005777
0.009325
0.009273
0.009322
0.009038
0.009273
0.009191
0.009221
0.008951
0.009213
0.008905
0.009260
0.008996
0.009222
0.008920
0.008911
0.007652
0.005930
0.003766
0.001416
0.001266
0.003626
0.007851
0.007094
0.003024
0.003042
0.004176
0.005260
0.005256
0.006229
0.007877
0.008465
0.008490
0.007840
0.007110
0.008436
0.001876
0.001874
0.000818
0.001853
0.001798
0.001797
0.006241
0.008003
0.009294
0.009342
0.009356
0.009031
0.008888
0.001005
0.000901
0.005276
0.003082
0.007239
0.007226
0.007993
0.007276
0.008017
0.007988
0.002023
0.002028
0.007078
0.006213
0.009022
0.009085
0.008590
0.005251
0.009295
0.009322
0.009337
0.009328
0.001809
0.001806
0.007142
0.007196
0.003274
0.007335
0.006280
0.001868
0.001863
0.000799
0.003042
0.000948
0.003201
0.003227
0.003236
0.004370
0.002059
