# vtk DataFile Version 2.0
Unstructured Grid Example
ASCII
DATASET UNSTRUCTURED_GRID
POINTS 507 float
-0.000468 0.499607 -0.039990 
0.499244 -0.000199 -0.040288 
-0.000525 -0.499945 -0.039751 
-0.500221 -0.000186 -0.039583 
0.000323 0.500179 4.039427 
0.500187 0.000251 4.039436 
0.000404 -0.499557 4.040112 
-0.499355 0.000298 4.040300 
0.190811 0.461672 -0.040044 
0.352916 0.353263 -0.040185 
0.461334 0.191118 -0.040216 
0.461323 -0.191451 -0.040112 
0.352928 -0.353542 -0.040045 
0.190800 -0.461994 -0.039893 
-0.191803 -0.461943 -0.039568 
-0.353885 -0.353675 -0.039409 
-0.462196 -0.191501 -0.039506 
-0.462207 0.191135 -0.039548 
-0.353936 0.353226 -0.039588 
-0.191769 0.461570 -0.039842 
0.191617 0.462151 4.039366 
0.353853 0.353817 4.039280 
0.462174 0.191584 4.039309 
0.462166 -0.191007 4.039528 
0.353882 -0.353219 4.039630 
0.191701 -0.461531 4.039904 
-0.190873 -0.461519 4.040262 
-0.352949 -0.353232 4.040268 
-0.461285 -0.191056 4.040410 
-0.461360 0.191612 4.040089 
-0.353096 0.353747 4.039788 
-0.190938 0.462099 4.039562 
-0.000306 0.499138 0.160498 
-0.000144 0.498426 0.361906 
0.000118 0.497762 0.564458 
0.000180 0.497181 0.767796 
0.000313 0.496682 0.971783 
0.000320 0.496223 1.176553 
0.000349 0.495828 1.381909 
0.000280 0.495551 1.587760 
0.000191 0.495354 1.793927 
0.000066 0.495229 2.000024 
-0.000094 0.495190 2.206311 
-0.000240 0.495386 2.412328 
-0.000303 0.495713 2.618018 
-0.000291 0.495878 2.823492 
-0.000195 0.496331 3.028071 
-0.000292 0.496905 3.232041 
-0.000119 0.497902 3.435204 
0.000049 0.498398 3.637587 
0.000185 0.499321 3.838961 
-0.000315 -0.499340 0.160765 
-0.000135 -0.498486 0.362162 
0.000073 -0.497808 0.564511 
0.000272 -0.497123 0.767893 
0.000296 -0.496500 0.971913 
0.000387 -0.495985 1.176661 
0.000328 -0.495507 1.381879 
0.000274 -0.495267 1.587693 
0.000171 -0.495133 1.793742 
0.000019 -0.495088 1.999907 
-0.000103 -0.495250 2.206136 
-0.000238 -0.495520 2.412212 
-0.000306 -0.495914 2.618003 
-0.000323 -0.496218 2.823445 
-0.000316 -0.496675 3.028166 
-0.000220 -0.497276 3.232228 
-0.000053 -0.497893 3.435659 
0.000025 -0.498452 3.638098 
0.000218 -0.499057 3.839657 
0.498879 -0.000118 0.160240 
0.498342 -0.000110 0.361619 
0.497679 -0.000021 0.564098 
0.497422 0.000011 0.767676 
0.496761 0.000113 0.971762 
0.496345 0.000093 1.176472 
0.495984 0.000196 1.381795 
0.495734 0.000153 1.587854 
0.495438 0.000109 1.794006 
0.495166 0.000052 2.000166 
0.495105 -0.000017 2.206407 
0.495274 -0.000112 2.412348 
0.495553 -0.000153 2.618021 
0.495775 -0.000123 2.823449 
0.496280 -0.000146 3.027863 
0.497084 -0.000196 3.231909 
0.497781 -0.000142 3.435445 
0.498425 0.000038 3.637683 
0.499353 0.000176 3.838967 
-0.499518 -0.000154 0.160919 
-0.498565 -0.000084 0.362363 
-0.497823 -0.000038 0.564770 
-0.497072 0.000077 0.768059 
-0.496324 0.000110 0.971968 
-0.495764 0.000177 1.176591 
-0.495383 0.000199 1.381843 
-0.495191 0.000173 1.587650 
-0.495124 0.000109 1.793704 
-0.495090 0.000064 1.999824 
-0.495304 0.000006 2.206054 
-0.495615 -0.000044 2.412152 
-0.496010 -0.000132 2.617941 
-0.496274 -0.000133 2.823305 
-0.496757 -0.000251 3.028236 
-0.497375 -0.000158 3.232354 
-0.498061 -0.000139 3.435794 
-0.498294 -0.000055 3.638406 
-0.498854 0.000146 3.839861 
0.350877 -0.352881 0.646250 
0.351625 -0.354159 0.169152 
0.350796 -0.350300 1.462012 
0.351463 -0.351437 0.904010 
0.350477 -0.350103 1.669390 
0.350980 -0.350492 1.187921 
0.350231 -0.350057 1.918655 
0.350585 -0.351013 2.823266 
0.350071 -0.350411 2.405754 
0.350334 -0.350813 2.643126 
0.350097 -0.350175 2.164690 
0.350703 -0.351105 2.965054 
0.364048 -0.339349 3.385287 
0.352538 -0.352506 3.663027 
0.201438 -0.456662 3.846219 
0.457036 -0.201111 3.845822 
0.161650 -0.471798 3.687366 
0.471743 -0.161464 3.686965 
0.174298 -0.467243 0.279995 
0.465972 -0.177346 0.279668 
0.190144 -0.458082 1.179518 
0.458576 -0.189668 1.179481 
0.186782 -0.458542 2.038077 
0.458592 -0.186733 2.038221 
0.147027 -0.473519 2.605487 
0.473083 -0.147508 2.605549 
0.473368 -0.149258 3.035143 
0.148804 -0.473785 3.035350 
0.462052 -0.185861 3.508586 
0.185743 -0.462156 3.508743 
0.211501 -0.450065 3.262034 
0.469635 -0.163669 3.285942 
0.458938 -0.192718 0.509268 
0.190387 -0.460029 0.509741 
0.470140 -0.162661 0.766426 
0.162077 -0.470088 0.766968 
0.460830 -0.185340 1.030833 
0.185580 -0.460466 1.031015 
0.190055 -0.457842 1.329131 
0.458308 -0.189560 1.329110 
0.458049 -0.189405 1.536846 
0.189906 -0.457644 1.536842 
0.175304 -0.463115 1.775739 
0.463424 -0.175025 1.775848 
0.181046 -0.461162 2.408240 
0.460842 -0.181418 2.408345 
0.189580 -0.458536 2.822851 
0.458043 -0.190000 2.822836 
0.347976 -0.356455 0.419599 
0.353387 -0.352936 3.906058 
0.374298 -0.326868 3.175387 
0.278592 -0.411269 3.109508 
0.222587 -0.442388 2.244620 
0.442233 -0.222745 2.244703 
0.090166 -0.486864 1.899824 
0.487031 -0.090005 1.899973 
0.100454 -0.489112 3.941586 
0.489605 -0.099946 3.940997 
0.266483 -0.417837 2.517551 
0.417421 -0.266908 2.517648 
0.187785 -0.462825 0.081420 
0.461871 -0.189222 0.081216 
-0.351525 -0.351676 0.738096 
-0.363857 -0.341378 0.292482 
-0.351980 -0.352036 0.553660 
-0.350026 -0.350115 1.669826 
-0.350155 -0.350276 1.472818 
-0.350411 -0.350609 1.210556 
-0.350878 -0.351080 0.971868 
-0.350063 -0.350064 1.894562 
-0.351012 -0.350857 2.823287 
-0.350814 -0.350671 2.628698 
-0.350583 -0.350445 2.464812 
-0.350173 -0.350116 2.073693 
-0.351352 -0.351221 3.017607 
-0.351845 -0.351833 3.298530 
-0.363467 -0.341185 3.708038 
-0.352170 -0.352111 3.453846 
-0.469118 -0.169424 3.812226 
-0.469697 -0.169734 0.187985 
-0.251886 -0.430684 3.850693 
-0.258172 -0.427675 0.143349 
-0.205729 -0.450492 2.178448 
-0.450564 -0.205633 2.178418 
-0.147562 -0.474677 0.778048 
-0.474575 -0.147777 0.778096 
-0.163810 -0.467201 1.987935 
-0.467199 -0.163778 1.987885 
-0.175219 -0.464035 2.612214 
-0.464150 -0.175055 2.612161 
-0.458962 -0.190172 3.024545 
-0.190301 -0.458859 3.024542 
-0.459402 -0.193724 0.367920 
-0.213204 -0.450672 0.363029 
-0.459132 -0.193606 3.629322 
-0.183190 -0.463445 3.607371 
-0.459776 -0.190876 0.560598 
-0.190805 -0.459800 0.560487 
-0.460768 -0.188606 3.374248 
-0.186854 -0.461350 3.370701 
-0.189807 -0.459474 3.162188 
-0.459443 -0.190026 3.162817 
-0.461905 -0.181633 0.973053 
-0.181423 -0.462073 0.972941 
-0.451164 -0.204707 1.309130 
-0.204534 -0.451310 1.309127 
-0.457495 -0.189399 1.536888 
-0.189283 -0.457601 1.536894 
-0.185123 -0.459195 1.745034 
-0.459154 -0.185188 1.745022 
-0.458431 -0.189924 2.823407 
-0.190106 -0.458307 2.823456 
-0.386255 -0.315829 3.887165 
-0.386874 -0.316290 0.113366 
-0.350327 -0.350217 2.253861 
-0.467691 -0.163912 2.392283 
-0.164080 -0.467587 2.392307 
-0.267245 -0.418780 0.863443 
-0.418617 -0.267430 0.863492 
-0.113300 -0.486152 3.907863 
-0.116870 -0.485797 0.089820 
-0.441138 -0.226519 1.128165 
-0.226321 -0.441380 1.128122 
-0.111218 -0.486263 3.767726 
-0.119625 -0.484529 0.225158 
-0.490560 -0.091615 3.933340 
-0.491310 -0.091985 0.067347 
-0.351670 0.351825 0.669820 
-0.352105 0.352079 0.529102 
-0.341500 0.363582 0.288145 
-0.350123 0.350616 1.448752 
-0.350019 0.350412 1.665825 
-0.351058 0.351381 0.881396 
-0.350334 0.350864 1.236118 
-0.350994 0.350569 2.823526 
-0.350056 0.350233 1.917702 
-0.350209 0.350172 2.164362 
-0.350917 0.350462 2.642841 
-0.350537 0.350267 2.406537 
-0.351648 0.351280 3.200467 
-0.351352 0.350811 3.015800 
-0.342878 0.361955 3.684148 
-0.349824 0.354379 3.504109 
-0.193915 0.459998 3.849763 
-0.169885 0.469292 0.186944 
-0.419092 0.271257 3.885508 
-0.428284 0.256999 0.142537 
-0.154276 0.474227 3.695517 
-0.468673 0.170464 3.745050 
-0.207054 0.452987 3.508751 
-0.449738 0.213838 3.509452 
-0.442175 0.225587 0.973564 
-0.225143 0.442562 0.973409 
-0.182331 0.462447 0.782201 
-0.462253 0.182618 0.782397 
-0.458547 0.186817 2.037576 
-0.186756 0.458661 2.037674 
-0.473603 0.147224 2.605334 
-0.147673 0.473274 2.605377 
-0.457050 0.194930 3.103680 
-0.195048 0.456710 3.103729 
-0.193786 0.459287 0.367863 
-0.451867 0.210696 0.358397 
-0.465317 0.176849 0.562246 
-0.176772 0.465311 0.562031 
-0.455562 0.196077 1.129465 
-0.195560 0.456047 1.129396 
-0.461285 0.181278 2.408230 
-0.181525 0.460960 2.408396 
-0.457687 0.189899 1.325732 
-0.189391 0.458225 1.325773 
-0.457529 0.189804 1.533657 
-0.189319 0.457938 1.533676 
-0.174934 0.463364 1.774588 
-0.463081 0.175272 1.774464 
-0.449723 0.210001 2.863520 
-0.210364 0.449231 2.863650 
-0.459862 0.189806 3.299921 
-0.188444 0.460287 3.299709 
-0.316483 0.386378 0.112036 
-0.315723 0.386878 3.898438 
-0.350799 0.353092 3.363793 
-0.350649 0.351151 1.053731 
-0.091264 0.489058 0.669003 
-0.489011 0.091443 0.669256 
-0.442480 0.222723 2.244562 
-0.222801 0.442316 2.244689 
-0.417937 0.266659 2.517465 
-0.267065 0.417585 2.517518 
-0.486829 0.090175 1.899283 
-0.089966 0.487031 1.899468 
-0.097993 0.489946 3.941994 
-0.486069 0.116036 0.089483 
-0.484838 0.118596 0.223843 
-0.092199 0.490802 0.066782 
-0.482089 0.129406 3.911620 
0.353011 0.350803 0.643187 
0.353691 0.351817 0.169025 
0.350828 0.350586 1.366839 
0.351790 0.351187 0.883014 
0.351171 0.351019 1.090938 
0.350562 0.350415 1.648523 
0.350240 0.350216 1.913941 
0.350507 0.350615 2.823359 
0.350135 0.350276 2.405828 
0.350390 0.350533 2.643162 
0.350061 0.350115 2.163443 
0.350708 0.350795 2.964924 
0.339216 0.364048 3.385134 
0.352491 0.352504 3.662799 
0.457037 0.201431 3.845667 
0.201459 0.457025 3.845689 
0.471734 0.161569 3.686842 
0.161595 0.471735 3.686862 
0.466945 0.174424 0.279648 
0.176990 0.466105 0.279750 
0.190050 0.458087 1.374978 
0.458264 0.189809 1.374874 
0.186825 0.458634 2.036231 
0.458562 0.186798 2.036268 
0.473187 0.147214 2.605527 
0.147060 0.473311 2.605533 
0.148954 0.473462 3.035261 
0.473379 0.148969 3.035152 
0.185804 0.462177 3.508311 
0.462098 0.185646 3.508422 
0.458477 0.189920 1.226899 
0.190146 0.458365 1.227017 
0.189925 0.457877 1.525700 
0.458134 0.189723 1.525748 
0.449947 0.211569 3.261753 
[...]
POINT_DATA 507
SCALARS u float 1
LOOKUP_TABLE default
0.009236
0.009306
0.009181
0.009142
0.009106
0.009108
0.009265
0.009308
0.009249
0.009282
0.009289
0.009265
0.009249
0.009214
0.009139
0.009101
0.009124
0.009134
0.009143
0.009202
0.009092
0.009072
0.009078
0.009129
0.009153
0.009216
0.009299
0.009301
0.009334
0.009259
0.009189
0.009137
0.009125
0.008805
0.008224
0.007466
0.006562
0.005485
0.004288
0.003008
0.001766
0.001102
0.001833
0.003040
0.004278
0.005509
0.006538
0.007434
0.008144
0.008688
0.008999
0.009062
0.008745
0.008212
0.007445
0.006537
0.005470
0.004312
0.003046
0.001831
0.001135
0.001792
0.003005
0.004264
0.005485
0.006550
0.007469
0.008250
0.008806
0.009161
0.009186
0.008872
0.008309
0.007489
0.006564
0.005499
0.004306
0.002973
0.001740
0.001117
0.001862
0.003053
0.004287
0.005503
0.006492
0.007400
0.008202
0.008710
0.009000
0.009026
0.008698
0.008152
0.007407
0.006529
0.005494
0.004327
0.003061
0.001839
0.001135
0.001769
0.002984
0.004245
0.005450
0.006564
0.007497
0.008279
0.008878
0.009209
0.007996
0.009139
0.003772
0.006855
0.002515
0.005435
0.001241
0.005448
0.003009
0.004417
0.001619
0.006237
0.008014
0.008812
0.009122
0.009030
0.008879
0.008788
0.008935
0.008996
0.005452
0.005450
0.001156
0.001158
0.004194
0.004223
0.006550
0.006590
0.008426
0.008462
0.007571
0.007644
0.008433
0.008414
0.007558
0.007451
0.006262
0.006230
0.004607
0.004600
0.003318
0.003332
0.001911
0.001864
0.003005
0.003040
0.005467
0.005475
0.008679
0.009129
0.007200
0.006910
0.002029
0.002054
0.001320
0.001275
0.009217
0.009080
0.003662
0.003691
0.009195
0.009241
0.007523
0.008810
0.008197
0.002591
0.003766
0.005290
0.006528
0.001382
0.005446
0.004321
0.003313
0.001213
0.006514
0.007780
0.009020
0.008344
0.009191
0.008994
0.009219
0.009031
0.001629
0.001620
0.007381
0.007370
0.001141
0.001145
0.004219
0.004204
0.006552
0.006553
0.008643
0.008688
0.008860
0.008762
0.008171
0.008197
0.008034
0.008046
0.007202
0.007208
0.006520
0.006544
0.004750
0.004748
0.003389
0.003384
0.002128
0.002132
0.005476
0.005489
0.009252
0.009045
0.002017
0.002853
0.002862
0.007008
0.006997
0.009243
0.009113
0.005731
0.005736
0.009071
0.008957
0.009293
0.009095
0.007847
0.008301
0.008864
0.003905
0.002572
0.006996
0.005152
0.005508
0.001259
0.001579
0.004441
0.002966
0.007357
0.006526
0.008855
0.008420
0.009057
0.009076
0.009168
0.009050
0.008823
0.009020
0.008428
0.008478
0.006531
0.006562
0.007422
0.007378
0.001146
0.001132
0.004188
0.004208
0.006904
0.006925
0.008738
0.008719
0.008167
0.008217
0.005742
0.005749
0.002967
0.003021
0.004652
0.004628
0.003379
0.003362
0.001902
0.001945
0.005712
0.005753
0.007748
0.007721
0.009101
0.009133
0.007994
0.006157
0.007858
0.007800
0.001982
0.002021
0.003651
0.003667
0.001347
0.001292
0.009089
0.009095
0.008953
0.009187
0.009238
0.008034
0.009170
0.004390
0.006998
0.005969
0.002603
0.001219
0.005482
0.003030
0.004433
0.001652
0.006214
0.007980
0.008759
0.008993
0.008998
0.008759
0.008764
0.009016
0.008977
0.004318
0.004337
0.001140
0.001159
0.004218
0.004216
0.006577
0.006554
0.008362
0.008389
0.005222
0.005196
0.003389
0.003367
0.007507
0.007633
0.008498
0.008450
0.007575
0.007576
0.006450
0.006451
0.001891
0.001866
0.003051
0.003038
0.005490
0.005490
0.008726
0.009051
0.007172
0.006876
0.002095
0.002077
0.001282
0.001272
0.007027
0.007034
0.009066
0.009053
0.003690
0.003687
0.009269
0.009225
0.009465
0.009384
0.009379
0.009402
0.009356
0.009303
0.009457
0.009377
0.009357
0.009363
0.009406
0.009264
0.009283
0.009354
0.009289
0.009401
0.009256
0.009443
0.009423
0.009448
0.009428
0.009366
0.009254
0.009227
0.009381
0.009446
0.009437
0.009342
0.009396
0.009310
0.009416
0.009319
0.009382
0.009355
0.009380
0.009272
0.009396
0.009271
0.009320
0.009407
0.009329
0.009255
0.009443
0.009426
0.009437
0.009383
0.009275
0.009336
0.009376
0.009258
0.007536
0.005777
0.009325
0.009273
0.009322
0.009038
0.009273
0.009191
0.009221
0.008951
0.009213
0.008905
0.009260
0.008996
0.009222
0.008920
0.008911
0.007652
0.005930
0.003766
0.001416
0.001266
0.003626
0.007851
0.007094
0.003024
0.003042
0.004176
0.005260
0.005256
0.006229
0.007877
0.008465
0.008490
0.007840
0.007110
0.008436
0.001876
0.001874
0.000818
0.001853
0.001798
0.001797
0.006241
0.008003
0.009294
0.009342
0.009356
0.009031
0.008888
0.001005
0.000901
0.005276
0.003082
0.007239
0.007226
0.007993
0.007276
0.008017
0.007988
0.002023
0.002028
0.007078
0.006213
0.009022
0.009085
0.008590
0.005251
0.009295
0.009322
0.009337
0.009328
0.001809
0.001806
0.007142
0.007196
0.003274
0.007335
0.006280
0.001868
0.001863
0.000799
0.003042
0.000948
0.003201
0.003227
0.003236
0.004370
0.002059
