# vtk DataFile Version 2.0
Unstructured Grid Example
ASCII
DATASET UNSTRUCTURED_GRID
POINTS 630 float
-0.000000 0.500001 0.000183 
0.500001 -0.000000 0.000183 
-0.000001 -0.500001 0.000184 
-0.500002 0.000000 0.000184 
0.000001 0.500001 3.999816 
0.500001 0.000001 3.999816 
0.000001 -0.500000 3.999818 
-0.500000 0.000001 3.999817 
0.191342 0.461940 0.000183 
0.353554 0.353554 0.000183 
0.461940 0.191342 0.000182 
0.461940 -0.191342 0.000183 
0.353553 -0.353554 0.000183 
0.191341 -0.461941 0.000184 
-0.191343 -0.461941 0.000184 
-0.353555 -0.353554 0.000184 
-0.461942 -0.191342 0.000184 
-0.461941 0.191342 0.000184 
-0.353554 0.353554 0.000183 
-0.191342 0.461941 0.000183 
0.191342 0.461941 3.999817 
0.353554 0.353554 3.999817 
0.461941 0.191343 3.999816 
0.461941 -0.191341 3.999816 
0.353554 -0.353553 3.999817 
0.191342 -0.461940 3.999817 
-0.191341 -0.461939 3.999818 
-0.353553 -0.353553 3.999818 
-0.461940 -0.191341 3.999817 
-0.461940 0.191343 3.999817 
-0.353553 0.353555 3.999817 
-0.191341 0.461941 3.999817 
-0.000000 0.500003 0.200181 
0.000000 0.500007 0.400174 
-0.000000 0.500010 0.600163 
0.000000 0.500013 0.800148 
0.000000 0.500016 1.000129 
0.000000 0.500018 1.200107 
0.000000 0.500020 1.400083 
0.000000 0.500021 1.600056 
0.000000 0.500022 1.800028 
-0.000000 0.500022 2.000000 
-0.000000 0.500022 2.199972 
-0.000000 0.500021 2.399944 
-0.000000 0.500019 2.599917 
-0.000001 0.500018 2.799892 
-0.000001 0.500016 2.999871 
0.000000 0.500014 3.199852 
0.000000 0.500009 3.399837 
0.000000 0.500007 3.599825 
0.000000 0.500005 3.799818 
-0.000000 -0.500004 0.200181 
-0.000000 -0.500007 0.400175 
-0.000000 -0.500010 0.600163 
0.000000 -0.500013 0.800148 
0.000000 -0.500015 1.000130 
0.000000 -0.500018 1.200108 
0.000000 -0.500020 1.400083 
0.000000 -0.500021 1.600057 
0.000000 -0.500022 1.800028 
-0.000000 -0.500022 2.000000 
-0.000000 -0.500022 2.199971 
-0.000000 -0.500021 2.399944 
-0.000000 -0.500021 2.599917 
-0.000000 -0.500018 2.799893 
-0.000000 -0.500016 2.999871 
0.000000 -0.500013 3.199852 
-0.000000 -0.500010 3.399837 
-0.000000 -0.500007 3.599826 
0.000000 -0.500003 3.799820 
0.500003 -0.000000 0.200181 
0.500007 0.000000 0.400174 
0.500011 0.000000 0.600163 
0.500013 0.000000 0.800148 
0.500016 0.000000 1.000129 
0.500018 0.000000 1.200108 
0.500020 0.000000 1.400083 
0.500021 0.000000 1.600057 
0.500022 0.000000 1.800029 
0.500022 0.000000 2.000000 
0.500022 -0.000000 2.199971 
0.500021 -0.000000 2.399943 
0.500020 -0.000000 2.599917 
0.500018 -0.000000 2.799892 
0.500015 -0.000001 2.999871 
0.500013 -0.000000 3.199852 
0.500010 -0.000000 3.399837 
0.500008 0.000000 3.599826 
0.500004 0.000000 3.799818 
-0.500004 0.000000 0.200182 
-0.500007 0.000000 0.400175 
-0.500010 0.000000 0.600163 
-0.500013 0.000000 0.800148 
-0.500015 0.000000 1.000130 
-0.500018 0.000000 1.200108 
-0.500020 0.000000 1.400083 
-0.500021 0.000000 1.600056 
-0.500022 0.000000 1.800028 
-0.500022 -0.000000 2.000000 
-0.500022 -0.000000 2.199971 
-0.500021 -0.000000 2.399943 
-0.500021 -0.000000 2.599917 
-0.500019 -0.000000 2.799893 
-0.500015 -0.000001 2.999871 
-0.500013 -0.000000 3.199852 
-0.500010 -0.000000 3.399837 
-0.500007 0.000000 3.599826 
-0.500004 0.000000 3.799819 
0.354591 0.352528 0.678056 
0.354593 0.352516 0.208894 
0.353568 0.353568 1.385502 
0.353568 0.353568 1.658974 
0.353779 0.353349 0.913315 
0.353566 0.353566 1.116668 
0.353569 0.353569 1.916353 
0.353566 0.353566 2.799892 
0.353568 0.353568 2.393535 
0.353569 0.353569 2.158209 
0.353567 0.353567 2.624387 
0.353565 0.353565 2.938189 
0.340814 0.365864 3.350504 
0.353558 0.353558 3.624723 
0.457572 0.201575 3.806547 
0.201575 0.457572 3.806547 
0.473048 0.161961 3.648762 
0.161961 0.473048 3.648762 
0.468397 0.174956 0.318837 
0.177655 0.467380 0.318771 
0.191349 0.461958 1.393313 
0.461959 0.191350 1.393313 
0.188606 0.463087 2.034980 
0.463087 0.188607 2.034980 
0.477422 0.148619 2.587730 
0.148619 0.477421 2.587730 
0.150155 0.476937 3.006888 
0.476937 0.150155 3.006888 
0.186497 0.463926 3.471984 
0.463927 0.186497 3.471984 
0.191349 0.461957 1.249301 
0.461957 0.191349 1.249302 
0.191350 0.461959 1.539793 
0.461959 0.191350 1.539793 
0.452421 0.212901 3.229216 
0.164389 0.472217 3.252797 
0.193562 0.461024 0.545884 
0.461990 0.191244 0.546277 
0.178898 0.466914 0.783309 
0.467232 0.178064 0.783370 
0.176588 0.467796 1.022847 
0.467880 0.176366 1.022860 
0.176820 0.467714 1.776878 
0.467714 0.176820 1.776878 
0.465342 0.182969 2.395971 
0.182969 0.465342 2.395971 
0.191348 0.461956 2.799382 
0.461956 0.191348 2.799382 
0.357726 0.349342 0.457305 
0.353556 0.353556 3.866353 
0.328718 0.376772 3.144219 
0.413830 0.280640 3.079627 
0.446607 0.224863 2.236533 
0.224863 0.446607 2.236533 
0.090957 0.491680 1.901048 
0.491680 0.090958 1.901048 
0.090359 0.491782 0.901609 
0.491833 0.090082 0.901627 
0.489845 0.100273 3.901499 
0.100273 0.489845 3.901499 
0.421409 0.269137 2.502249 
0.269137 0.421409 2.502250 
0.463150 0.188400 0.121411 
0.189299 0.462783 0.121400 
0.353563 -0.353562 0.785566 
0.353560 -0.353560 0.585581 
0.342184 -0.364576 0.330492 
0.353569 -0.353568 1.672896 
0.353565 -0.353564 0.977910 
0.353568 -0.353567 1.424522 
0.353569 -0.353569 1.894663 
0.353566 -0.353567 2.799488 
0.353569 -0.353569 2.191883 
0.353568 -0.353568 2.420866 
0.353567 -0.353568 2.607412 
0.353564 -0.353565 2.989405 
0.353562 -0.353563 3.179355 
0.343885 -0.362973 3.645310 
0.351166 -0.355939 3.465892 
0.194409 -0.460661 3.810266 
0.169907 -0.470251 0.227215 
0.419908 -0.271442 3.845519 
0.428035 -0.258436 0.182436 
0.154790 -0.475443 3.656935 
0.469811 -0.171123 3.706157 
0.207754 -0.454805 3.472235 
0.450718 -0.216478 3.474993 
0.447604 -0.222871 1.583630 
0.222872 -0.447604 1.583630 
0.459837 -0.196390 1.242416 
0.196391 -0.459836 1.242416 
0.191347 -0.461952 0.793378 
0.461952 -0.191346 0.793378 
0.473007 -0.162124 1.450142 
0.162125 -0.473007 1.450142 
0.225829 -0.446120 2.060636 
0.446120 -0.225829 2.060637 
0.178002 -0.467258 3.047948 
0.467126 -0.178349 3.047951 
0.463406 -0.187817 2.532865 
0.187816 -0.463407 2.532866 
0.194256 -0.460729 0.406573 
0.451564 -0.214702 0.400157 
0.461798 -0.191710 0.595804 
0.191710 -0.461798 0.595804 
0.469435 -0.172196 2.370449 
0.172195 -0.469436 2.370449 
0.179252 -0.466781 1.001010 
0.466781 -0.179252 1.001010 
0.461857 -0.191572 3.268603 
0.189175 -0.462844 3.268579 
0.165147 -0.471962 1.797380 
0.471962 -0.165147 1.797381 
0.200548 -0.458038 2.784550 
0.458019 -0.200591 2.784550 
0.316426 -0.387140 0.152707 
0.316350 -0.387202 3.858606 
0.352220 -0.354898 3.330305 
0.353566 -0.353565 1.122001 
0.443933 -0.230099 2.248761 
0.230098 -0.443933 2.248761 
0.490818 -0.095472 1.105956 
0.095472 -0.490818 1.105956 
0.098361 -0.490231 3.902429 
0.486188 -0.116718 0.129386 
0.353569 -0.353569 2.041959 
0.353567 -0.353566 1.257839 
0.485417 -0.119897 0.263941 
0.490600 -0.096582 2.908065 
0.096479 -0.490621 2.908065 
0.091901 -0.491484 0.106942 
0.482967 -0.129405 3.871484 
-0.353561 -0.353561 0.702008 
-0.364577 -0.342184 0.327289 
-0.353560 -0.353560 0.568233 
-0.353567 -0.353567 1.333557 
-0.353569 -0.353569 1.697507 
-0.353563 -0.353563 0.870937 
-0.353569 -0.353569 1.881132 
-0.368981 -0.337451 2.632669 
-0.353568 -0.353568 2.450709 
-0.353569 -0.353569 2.067329 
-0.350992 -0.356120 2.941416 
-0.353563 -0.353563 3.179368 
-0.362973 -0.343885 3.645311 
-0.355938 -0.351166 3.465892 
-0.460661 -0.194408 3.810266 
-0.470244 -0.169926 0.226469 
-0.271442 -0.419906 3.845520 
-0.257516 -0.428590 0.182105 
-0.475443 -0.154790 3.656935 
-0.171123 -0.469811 3.706159 
-0.454805 -0.207755 3.472238 
-0.216477 -0.450718 3.474997 
-0.222159 -0.447958 1.609117 
-0.447958 -0.222159 1.609117 
-0.208469 -0.454485 1.014747 
-0.454484 -0.208469 1.014747 
-0.453380 -0.210875 2.174289 
-0.210875 -0.453380 2.174289 
-0.466084 -0.181048 0.809731 
-0.181048 -0.466084 0.809731 
-0.194861 -0.460488 1.443313 
-0.460488 -0.194861 1.443313 
-0.197381 -0.459416 2.021544 
-0.459416 -0.197381 2.021544 
-0.184030 -0.464923 2.603349 
-0.467859 -0.176432 2.594155 
-0.197188 -0.459491 3.076236 
-0.467073 -0.178487 3.041268 
-0.460729 -0.194256 0.405495 
-0.211395 -0.453121 0.396779 
-0.467506 -0.177335 0.597034 
-0.177335 -0.467506 0.597034 
-0.181134 -0.466056 1.230050 
-0.466056 -0.181135 1.230050 
-0.191571 -0.461858 3.268627 
-0.462844 -0.189176 3.268603 
-0.471653 -0.166029 1.792626 
-0.166029 -0.471653 1.792626 
-0.177402 -0.467489 2.857533 
-0.441836 -0.234093 2.804817 
-0.387050 -0.316537 0.151764 
-0.387202 -0.316349 3.858607 
-0.354897 -0.352220 3.330310 
-0.353569 -0.353569 2.245835 
-0.353565 -0.353565 1.117459 
-0.490031 -0.099430 1.111259 
-0.099429 -0.490031 1.111259 
-0.491638 -0.091122 0.701770 
-0.091122 -0.491638 0.701770 
-0.165859 -0.471712 2.380688 
-0.471712 -0.165859 2.380688 
-0.490232 -0.098360 3.902429 
-0.116326 -0.486283 0.129117 
-0.118983 -0.485642 0.262928 
-0.353568 -0.353568 1.522654 
-0.316838 -0.386824 2.767957 
-0.488711 -0.105729 2.911462 
-0.491484 -0.091907 0.106755 
-0.129405 -0.482966 3.871486 
-0.353561 0.353562 0.703860 
-0.353560 0.353560 0.565154 
-0.342184 0.364577 0.326685 
-0.353567 0.353568 1.465121 
-0.353568 0.353569 1.675954 
-0.353563 0.353564 0.911645 
-0.353566 0.353567 1.258131 
-0.353567 0.353566 2.799892 
-0.353569 0.353569 1.920267 
-0.353569 0.353568 2.393543 
-0.353569 0.353569 2.159360 
-0.353568 0.353567 2.624387 
-0.353565 0.353564 2.989455 
-0.353563 0.353563 3.179367 
-0.343885 0.362974 3.645310 
-0.351166 0.355938 3.465892 
-0.194408 0.460662 3.810265 
-0.169926 0.470244 0.226412 
-0.419907 0.271443 3.845519 
-0.428584 0.257525 0.181900 
-0.154790 0.475443 3.656934 
-0.469811 0.171123 3.706158 
-0.207754 0.454805 3.472237 
-0.450719 0.216478 3.474996 
-0.445516 0.227002 1.001739 
-0.227002 0.445518 1.001740 
-0.183624 0.465076 0.814354 
-0.465076 0.183625 0.814354 
-0.188607 0.463087 2.036580 
-0.463087 0.188606 2.036580 
-0.477423 0.148619 2.587733 
-0.148620 0.477421 2.587733 
[...]
POINT_DATA 630
SCALARS u float 1
LOOKUP_TABLE default
0.006493
0.006487
0.006531
0.006548
0.006530
0.006535
0.006474
0.006494
0.006482
0.006492
0.006477
0.006502
0.006504
0.006516
0.006517
0.006524
0.006533
0.006519
0.006503
0.006512
0.006512
0.006500
0.006521
0.006519
0.006499
0.006488
0.006459
0.006466
0.006481
0.006495
0.006503
0.006510
0.006415
0.006195
0.005787
0.005265
0.004630
0.003870
0.003031
0.002141
0.001270
0.000785
0.001272
0.002125
0.003008
0.003888
0.004619
0.005272
0.005798
0.006212
0.006454
0.006439
0.006224
0.005807
0.005277
0.004632
0.003878
0.003043
0.002150
0.001275
0.000787
0.001294
0.002140
0.003046
0.003870
0.004607
0.005266
0.005812
0.006174
0.006388
0.006415
0.006193
0.005783
0.005267
0.004620
0.003877
0.003040
0.002152
0.001278
0.000789
0.001280
0.002140
0.003042
0.003876
0.004619
0.005257
0.005787
0.006197
0.006458
0.006452
0.006230
0.005808
0.005273
0.004647
0.003877
0.003035
0.002131
0.001260
0.000795
0.001293
0.002146
0.003046
0.003858
0.004602
0.005264
0.005801
0.006179
0.006416
0.005624
0.006405
0.003111
0.001870
0.004916
0.004220
0.000896
0.003867
0.002101
0.001123
0.003133
0.004404
0.005731
0.006247
0.006454
0.006455
0.006271
0.006275
0.006292
0.006293
0.003058
0.003072
0.000802
0.000810
0.002985
0.002957
0.004664
0.004658
0.005992
0.005982
0.003671
0.003685
0.002414
0.002415
0.005369
0.005445
0.005924
0.005913
0.005327
0.005326
0.004549
0.004552
0.001368
0.001369
0.002122
0.002111
0.003884
0.003869
0.006107
0.006481
0.005115
0.004897
0.001421
0.001424
0.000929
0.000933
0.004955
0.004954
0.006511
0.006505
0.002590
0.002580
0.006460
0.006466
0.005330
0.005841
0.006285
0.001827
0.004715
0.002920
0.000946
0.003859
0.001248
0.002225
0.003073
0.004577
0.005206
0.006259
0.005947
0.006421
0.006428
0.006463
0.006429
0.006261
0.006347
0.005979
0.005968
0.002229
0.002227
0.003712
0.003711
0.005292
0.005298
0.002817
0.002814
0.000851
0.000849
0.004778
0.004793
0.002756
0.002749
0.006179
0.006189
0.005816
0.005808
0.002011
0.002014
0.004623
0.004622
0.005455
0.005453
0.001288
0.001296
0.003817
0.003823
0.006456
0.006455
0.005631
0.004183
0.001476
0.001482
0.004238
0.004243
0.006467
0.006470
0.000819
0.003631
0.006364
0.004298
0.004291
0.006496
0.006499
0.005561
0.006308
0.005900
0.003305
0.001709
0.005075
0.000982
0.003201
0.002381
0.000865
0.004414
0.005204
0.006236
0.005925
0.006405
0.006436
0.006419
0.006453
0.006240
0.006289
0.005944
0.005963
0.002097
0.002098
0.004575
0.004574
0.001190
0.001190
0.005258
0.005253
0.002844
0.002843
0.000803
0.000806
0.003073
0.003027
0.004877
0.004755
0.006207
0.006216
0.005822
0.005821
0.003759
0.003759
0.005461
0.005455
0.001297
0.001301
0.004090
0.003897
0.006480
0.006430
0.005617
0.001467
0.004196
0.004227
0.004219
0.005554
0.005556
0.002059
0.002061
0.006474
0.006489
0.006387
0.002476
0.003745
0.004294
0.006514
0.006435
0.005558
0.005879
0.006304
0.002746
0.001802
0.004947
0.003632
0.003876
0.000880
0.002112
0.001130
0.003155
0.004582
0.005219
0.006265
0.005946
0.006454
0.006413
0.006456
0.006452
0.006294
0.006324
0.005981
0.005954
0.004622
0.004633
0.005244
0.005249
0.000803
0.000814
0.002995
0.002978
0.004873
0.004886
0.006185
0.006214
0.005813
0.005801
0.004056
0.004054
0.005458
0.005464
0.003272
0.003261
0.002364
0.002375
0.001350
0.001342
0.002131
0.002128
0.004043
0.004027
0.006461
0.006474
0.005643
0.004348
0.001431
0.001428
0.005543
0.005545
0.000922
0.000926
0.006499
0.006499
0.002607
0.002599
0.006398
0.006481
0.006468
0.006686
0.006641
0.006630
0.006592
0.006582
0.006622
0.006636
0.006622
0.006631
0.006594
0.006588
0.006622
0.006612
0.006574
0.006556
0.006555
0.006595
0.006668
0.006657
0.006665
0.006656
0.006664
0.006576
0.006564
0.006609
0.006591
0.006614
0.006632
0.006609
0.006634
0.006577
0.006587
0.006601
0.006599
0.006575
0.006588
0.006592
0.006579
0.006652
0.006631
0.006662
0.006625
0.006503
0.005327
0.005399
0.001023
0.000868
0.005552
0.005568
0.004073
0.002546
0.002139
0.002143
0.002947
0.003698
0.003710
0.004401
0.005577
0.005018
0.005965
0.006025
0.006292
0.005570
0.005997
0.001308
0.001297
0.000588
0.001317
0.001269
0.001261
0.004411
0.005654
0.006547
0.006569
0.006617
0.006567
0.006385
0.006535
0.006534
0.006319
0.004392
0.000648
0.000734
0.005607
0.001333
0.005547
0.005013
0.002945
0.005098
0.003715
0.003708
0.003731
0.002958
0.004404
0.003713
0.003687
0.003727
0.004402
0.005995
0.005972
0.006010
0.006296
0.005988
0.006010
0.005569
0.006303
0.005550
0.001449
0.001458
0.002148
0.004524
0.004544
0.006563
0.006518
0.006518
0.006552
0.006295
0.005018
0.005980
0.004406
0.004420
0.005014
0.006567
0.006506
0.006341
0.001463
0.005619
0.004549
0.005122
0.004524
0.003840
0.003853
0.003856
0.006535
0.001293
0.005053
0.005052
0.002284
0.005173
0.006592
0.006400
0.006603
0.006585
0.006407
0.006419
0.006554
0.006345
0.006503
0.005327
0.005399
0.001023
0.000868
0.005552
0.005568
0.004073
0.002546
0.002139
0.002143
0.002947
0.003698
0.003710
0.004401
0.005577
0.005018
0.005965
0.006025
0.006292
0.005570
0.005997
0.001308
0.001297
0.000588
0.001317
0.001269
0.001261
0.004411
0.005654
0.006547
0.006569
0.006617
0.006567
0.006385
0.006535
0.006534
0.006319
0.004392
0.000648
0.000734
0.005607
0.001333
0.005547
0.005013
0.002945
0.005098
0.003715
0.003708
0.003731
0.002958
0.004404
0.003713
0.003687
0.003727
0.004402
0.005995
0.005972
0.006010
0.006296
0.005988
0.006010
0.005569
0.006303
0.005550
0.001449
0.001458
0.002148
0.004524
0.004544
0.006563
0.006518
0.006518
0.006552
0.006295
0.005018
0.005980
0.004406
0.004420
0.005014
0.006567
0.006506
0.006341
0.001463
0.005619
0.004549
0.005122
0.004524
0.003840
0.003853
0.003856
0.006535
0.001293
0.005053
0.005052
0.002284
0.005173
0.006592
0.006400
0.006603
0.006585
0.006407
0.006419
0.006554
0.006345
