# vtk DataFile Version 2.0
Unstructured Grid Example
ASCII
DATASET UNSTRUCTURED_GRID
POINTS 507 float
-0.000334 0.499719 -0.028545 
0.499461 -0.000142 -0.028757 
-0.000375 -0.499961 -0.028374 
-0.500158 -0.000133 -0.028254 
0.000231 0.500128 4.028142 
0.500134 0.000180 4.028149 
0.000288 -0.499684 4.028632 
-0.499540 0.000213 4.028766 
0.190963 0.461748 -0.028583 
0.353099 0.353346 -0.028684 
0.461507 0.191182 -0.028706 
0.461500 -0.191420 -0.028632 
0.353107 -0.353545 -0.028584 
0.190955 -0.461978 -0.028475 
-0.191671 -0.461942 -0.028243 
-0.353790 -0.353640 -0.028130 
-0.462123 -0.191455 -0.028199 
-0.462131 0.191194 -0.028229 
-0.353826 0.353319 -0.028257 
-0.191647 0.461676 -0.028439 
0.191539 0.462091 4.028099 
0.353767 0.353741 4.028038 
0.462107 0.191515 4.028058 
0.462101 -0.191102 4.028214 
0.353788 -0.353315 4.028288 
0.191598 -0.461648 4.028483 
-0.191007 -0.461639 4.028738 
-0.353122 -0.353324 4.028743 
-0.461472 -0.191138 4.028844 
-0.461526 0.191535 4.028615 
-0.353227 0.353692 4.028400 
-0.191054 0.462054 4.028239 
-0.000218 0.499385 0.171804 
-0.000103 0.498877 0.372809 
0.000084 0.498402 0.574630 
0.000128 0.497988 0.777013 
0.000224 0.497631 0.979859 
0.000229 0.497304 1.183264 
0.000249 0.497022 1.387087 
0.000200 0.496824 1.591263 
0.000137 0.496684 1.795665 
0.000047 0.496595 2.000017 
-0.000067 0.496567 2.204505 
-0.000172 0.496706 2.408800 
-0.000216 0.496940 2.612861 
-0.000207 0.497058 2.816769 
-0.000139 0.497381 3.020036 
-0.000208 0.497791 3.222870 
-0.000085 0.498502 3.425128 
0.000035 0.498857 3.626829 
0.000132 0.499515 3.827810 
-0.000225 -0.499529 0.171995 
-0.000097 -0.498919 0.372992 
0.000052 -0.498436 0.574668 
0.000194 -0.497946 0.777082 
0.000211 -0.497502 0.979952 
0.000277 -0.497134 1.183341 
0.000234 -0.496793 1.387065 
0.000196 -0.496621 1.591216 
0.000122 -0.496526 1.795533 
0.000013 -0.496494 1.999934 
-0.000074 -0.496610 2.204380 
-0.000170 -0.496803 2.408717 
-0.000218 -0.497083 2.612851 
-0.000231 -0.497300 2.816735 
-0.000226 -0.497627 3.020104 
-0.000157 -0.498056 3.223004 
-0.000038 -0.498496 3.425453 
0.000018 -0.498895 3.627194 
0.000156 -0.499327 3.828307 
0.499200 -0.000085 0.171620 
0.498816 -0.000078 0.372604 
0.498343 -0.000015 0.574373 
0.498160 0.000008 0.776928 
0.497688 0.000081 0.979844 
0.497391 0.000067 1.183206 
0.497133 0.000140 1.387006 
0.496955 0.000109 1.591330 
0.496744 0.000078 1.795722 
0.496549 0.000037 2.000118 
0.496506 -0.000012 2.204573 
0.496627 -0.000080 2.408814 
0.496826 -0.000109 2.612863 
0.496984 -0.000088 2.816738 
0.497345 -0.000104 3.019888 
0.497919 -0.000140 3.222776 
0.498416 -0.000101 3.425300 
0.498876 0.000027 3.626897 
0.499539 0.000125 3.827814 
-0.499656 -0.000110 0.172104 
-0.498976 -0.000060 0.373135 
-0.498446 -0.000027 0.574853 
-0.497910 0.000055 0.777201 
-0.497376 0.000079 0.979991 
-0.496977 0.000126 1.183291 
-0.496704 0.000142 1.387039 
-0.496567 0.000124 1.591185 
-0.496520 0.000078 1.795506 
-0.496496 0.000046 1.999874 
-0.496648 0.000004 2.204322 
-0.496870 -0.000032 2.408674 
-0.497152 -0.000094 2.612806 
-0.497340 -0.000095 2.816635 
-0.497685 -0.000179 3.020155 
-0.498126 -0.000113 3.223094 
-0.498616 -0.000099 3.425550 
-0.498782 -0.000040 3.627414 
-0.499182 0.000104 3.828453 
0.351348 -0.353368 0.656136 
0.351879 -0.354283 0.180475 
0.351585 -0.351231 1.466524 
0.351999 -0.352104 0.912462 
0.351358 -0.351090 1.672212 
0.351716 -0.351368 1.194558 
0.351182 -0.351057 1.919334 
0.351435 -0.351740 2.816607 
0.351067 -0.351310 2.402275 
0.351256 -0.351598 2.637787 
0.351086 -0.351142 2.163236 
0.351519 -0.351806 2.957400 
0.364565 -0.339766 3.375378 
0.352829 -0.352805 3.652114 
0.201477 -0.456921 3.834916 
0.457188 -0.201244 3.834633 
0.161738 -0.472154 3.676368 
0.472115 -0.161605 3.676081 
0.174486 -0.467572 0.291061 
0.466374 -0.177434 0.290809 
0.190487 -0.459186 1.186175 
0.459539 -0.190147 1.186149 
0.187301 -0.459837 2.037751 
0.459873 -0.187267 2.037854 
0.147481 -0.474631 2.600429 
0.474320 -0.147824 2.600474 
0.474385 -0.149514 3.027093 
0.149189 -0.474683 3.027241 
0.462586 -0.186042 3.498158 
0.185958 -0.462660 3.498270 
0.211900 -0.450736 3.252684 
0.470370 -0.163874 3.276499 
0.459532 -0.192958 0.519701 
0.190631 -0.460588 0.520150 
0.470813 -0.162918 0.775765 
0.162259 -0.470860 0.776168 
0.461678 -0.185758 1.038536 
0.185863 -0.461445 1.038669 
0.190424 -0.459015 1.334707 
0.459347 -0.190070 1.334691 
0.459163 -0.189959 1.540766 
0.190317 -0.458873 1.540763 
0.175736 -0.464425 1.777663 
0.464646 -0.175536 1.777741 
0.181594 -0.462353 2.404755 
0.462124 -0.181860 2.404830 
0.190084 -0.459510 2.816165 
0.459158 -0.190384 2.816154 
0.348366 -0.356817 0.430342 
0.353435 -0.353112 3.894746 
0.375004 -0.327395 3.166507 
0.279176 -0.411999 3.100995 
0.223236 -0.443590 2.242508 
0.443480 -0.223348 2.242567 
0.090391 -0.488236 1.900686 
0.488356 -0.090277 1.900792 
0.100402 -0.489321 3.930165 
0.489673 -0.100039 3.929745 
0.267240 -0.418855 2.513194 
0.418558 -0.267543 2.513263 
0.187961 -0.462917 0.092814 
0.462131 -0.189244 0.092665 
-0.352105 -0.352213 0.747386 
-0.364062 -0.341608 0.303396 
-0.352431 -0.352471 0.563800 
-0.351036 -0.351099 1.672711 
-0.351127 -0.351214 1.477285 
-0.351310 -0.351452 1.216995 
-0.351644 -0.351788 0.979891 
-0.351062 -0.351063 1.895531 
-0.351739 -0.351629 2.816622 
-0.351598 -0.351496 2.623466 
-0.351433 -0.351335 2.460894 
-0.351140 -0.351100 2.073095 
-0.351982 -0.351889 3.009586 
-0.352334 -0.352326 3.288913 
-0.363783 -0.341470 3.696867 
-0.352566 -0.352524 3.443520 
-0.469441 -0.169562 3.800841 
-0.469853 -0.169789 0.199130 
-0.252090 -0.430918 3.839271 
-0.258188 -0.427813 0.154540 
-0.206278 -0.451737 2.176957 
-0.451789 -0.206209 2.176935 
-0.147880 -0.475452 0.787156 
-0.475379 -0.148032 0.787191 
-0.164276 -0.468528 1.988083 
-0.468526 -0.164253 1.988047 
-0.175564 -0.465124 2.607111 
-0.465206 -0.175447 2.607074 
-0.459814 -0.190507 3.016477 
-0.190599 -0.459741 3.016474 
-0.459780 -0.193876 0.378624 
-0.213353 -0.451057 0.373789 
-0.459587 -0.193791 3.618353 
-0.183367 -0.463887 3.596522 
-0.460352 -0.191114 0.570705 
-0.191063 -0.460369 0.570626 
-0.461335 -0.188825 3.364310 
-0.187076 -0.461954 3.360751 
-0.190070 -0.460253 3.153300 
-0.460197 -0.190309 3.153920 
-0.462882 -0.182017 0.981065 
-0.181867 -0.463002 0.980985 
-0.452355 -0.205247 1.314870 
-0.205124 -0.452459 1.314868 
-0.458767 -0.189955 1.540852 
-0.189872 -0.458843 1.540857 
-0.185678 -0.460481 1.747268 
-0.460452 -0.185725 1.747260 
-0.459435 -0.190330 2.816708 
-0.190460 -0.459347 2.816743 
-0.386507 -0.316000 3.875703 
-0.386924 -0.316360 0.124576 
-0.351250 -0.351172 2.251743 
-0.468884 -0.164330 2.388981 
-0.164450 -0.468810 2.388998 
-0.267787 -0.419525 0.872079 
-0.419409 -0.267919 0.872114 
-0.113426 -0.486364 3.896411 
-0.116796 -0.485915 0.101113 
-0.442189 -0.227043 1.135169 
-0.226901 -0.442362 1.135138 
-0.111329 -0.486584 3.756489 
-0.119622 -0.484802 0.236255 
-0.490824 -0.091697 3.921826 
-0.491358 -0.091962 0.078619 
-0.352209 0.352320 0.679518 
-0.352520 0.352501 0.539373 
-0.341694 0.363866 0.299125 
-0.351105 0.351457 1.453415 
-0.351031 0.351311 1.668711 
-0.351772 0.352003 0.890014 
-0.351255 0.351634 1.242389 
-0.351726 0.351423 2.816793 
-0.351057 0.351183 1.918429 
-0.351166 0.351140 2.162957 
-0.351671 0.351347 2.637461 
-0.351400 0.351208 2.403090 
-0.352194 0.351931 3.191389 
-0.351982 0.351596 3.007775 
-0.343165 0.362245 3.673182 
-0.350206 0.354824 3.493691 
-0.194056 0.460187 3.838541 
-0.169897 0.469563 0.198188 
-0.419324 0.271310 3.874148 
-0.428369 0.257149 0.153751 
-0.154422 0.474573 3.684588 
-0.469027 0.170570 3.733877 
-0.207254 0.453505 3.498321 
-0.450234 0.214136 3.498962 
-0.443128 0.225990 0.981591 
-0.225673 0.443404 0.981481 
-0.182699 0.463196 0.791361 
-0.463057 0.182905 0.791501 
-0.459841 0.187327 2.037288 
-0.187283 0.459922 2.037358 
-0.474691 0.147622 2.600274 
-0.147942 0.474456 2.600305 
-0.457835 0.195363 3.095171 
-0.195358 0.457630 3.095202 
-0.193919 0.459698 0.378684 
-0.452218 0.210910 0.369195 
-0.465907 0.177077 0.572347 
-0.177022 0.465903 0.572194 
-0.456659 0.196447 1.136487 
-0.196078 0.457005 1.136437 
-0.462441 0.181760 2.404772 
-0.181936 0.462208 2.404891 
-0.458904 0.190312 1.331353 
-0.189949 0.459288 1.331382 
-0.458791 0.190244 1.537626 
-0.189898 0.459083 1.537639 
-0.175472 0.464603 1.776521 
-0.464401 0.175713 1.776432 
-0.450641 0.210513 2.856519 
-0.210760 0.450295 2.856611 
-0.460496 0.190149 3.290346 
-0.188652 0.461016 3.290170 
-0.316498 0.386569 0.123314 
-0.315902 0.386970 3.887121 
-0.351203 0.353606 3.353907 
-0.351480 0.351838 1.061285 
-0.091441 0.489753 0.678715 
-0.489719 0.091569 0.678895 
-0.443656 0.223333 2.242493 
-0.223388 0.443539 2.242583 
-0.418926 0.267365 2.513107 
-0.267655 0.418675 2.513145 
-0.488211 0.090398 1.900191 
-0.090249 0.488355 1.900323 
-0.098098 0.490027 3.930730 
-0.486129 0.116120 0.100754 
-0.485066 0.118710 0.234936 
-0.092115 0.490996 0.078167 
-0.482344 0.129389 3.900174 
0.353461 0.351294 0.653121 
0.353949 0.352016 0.180384 
0.351608 0.351435 1.372156 
0.352356 0.351802 0.891647 
0.351853 0.351745 1.098268 
0.351418 0.351313 1.651501 
0.351188 0.351171 1.914628 
0.351379 0.351456 2.816673 
0.351113 0.351214 2.402325 
0.351295 0.351397 2.637813 
0.351060 0.351099 2.161952 
0.351523 0.351585 2.957308 
0.339671 0.364565 3.375268 
0.352795 0.352805 3.651952 
0.457189 0.201471 3.834523 
0.201492 0.457180 3.834538 
0.472109 0.161680 3.675994 
0.161699 0.472110 3.676008 
0.467359 0.174575 0.290814 
0.177179 0.466469 0.290868 
0.190419 0.459190 1.380201 
0.459316 0.190247 1.380128 
0.187332 0.459902 2.035874 
0.459851 0.187313 2.035901 
0.474394 0.147615 2.600457 
0.147505 0.474482 2.600461 
0.149296 0.474452 3.027178 
0.474393 0.149307 3.027100 
0.186001 0.462675 3.497962 
0.462619 0.185888 3.498042 
0.459468 0.190327 1.233282 
0.190488 0.459388 1.233366 
0.190330 0.459040 1.529715 
0.459223 0.190187 1.529749 
0.450652 0.211949 3.252483 
[...]
POINT_DATA 507
SCALARS u float 1
LOOKUP_TABLE default
0.009236
0.009306
0.009181
0.009142
0.009106
0.009108
0.009265
0.009308
0.009249
0.009282
0.009289
0.009265
0.009249
0.009214
0.009139
0.009101
0.009124
0.009134
0.009143
0.009202
0.009092
0.009072
0.009078
0.009129
0.009153
0.009216
0.009299
0.009301
0.009334
0.009259
0.009189
0.009137
0.009125
0.008805
0.008224
0.007466
0.006562
0.005485
0.004288
0.003008
0.001766
0.001102
0.001833
0.003040
0.004278
0.005509
0.006538
0.007434
0.008144
0.008688
0.008999
0.009062
0.008745
0.008212
0.007445
0.006537
0.005470
0.004312
0.003046
0.001831
0.001135
0.001792
0.003005
0.004264
0.005485
0.006550
0.007469
0.008250
0.008806
0.009161
0.009186
0.008872
0.008309
0.007489
0.006564
0.005499
0.004306
0.002973
0.001740
0.001117
0.001862
0.003053
0.004287
0.005503
0.006492
0.007400
0.008202
0.008710
0.009000
0.009026
0.008698
0.008152
0.007407
0.006529
0.005494
0.004327
0.003061
0.001839
0.001135
0.001769
0.002984
0.004245
0.005450
0.006564
0.007497
0.008279
0.008878
0.009209
0.007996
0.009139
0.003772
0.006855
0.002515
0.005435
0.001241
0.005448
0.003009
0.004417
0.001619
0.006237
0.008014
0.008812
0.009122
0.009030
0.008879
0.008788
0.008935
0.008996
0.005452
0.005450
0.001156
0.001158
0.004194
0.004223
0.006550
0.006590
0.008426
0.008462
0.007571
0.007644
0.008433
0.008414
0.007558
0.007451
0.006262
0.006230
0.004607
0.004600
0.003318
0.003332
0.001911
0.001864
0.003005
0.003040
0.005467
0.005475
0.008679
0.009129
0.007200
0.006910
0.002029
0.002054
0.001320
0.001275
0.009217
0.009080
0.003662
0.003691
0.009195
0.009241
0.007523
0.008810
0.008197
0.002591
0.003766
0.005290
0.006528
0.001382
0.005446
0.004321
0.003313
0.001213
0.006514
0.007780
0.009020
0.008344
0.009191
0.008994
0.009219
0.009031
0.001629
0.001620
0.007381
0.007370
0.001141
0.001145
0.004219
0.004204
0.006552
0.006553
0.008643
0.008688
0.008860
0.008762
0.008171
0.008197
0.008034
0.008046
0.007202
0.007208
0.006520
0.006544
0.004750
0.004748
0.003389
0.003384
0.002128
0.002132
0.005476
0.005489
0.009252
0.009045
0.002017
0.002853
0.002862
0.007008
0.006997
0.009243
0.009113
0.005731
0.005736
0.009071
0.008957
0.009293
0.009095
0.007847
0.008301
0.008864
0.003905
0.002572
0.006996
0.005152
0.005508
0.001259
0.001579
0.004441
0.002966
0.007357
0.006526
0.008855
0.008420
0.009057
0.009076
0.009168
0.009050
0.008823
0.009020
0.008428
0.008478
0.006531
0.006562
0.007422
0.007378
0.001146
0.001132
0.004188
0.004208
0.006904
0.006925
0.008738
0.008719
0.008167
0.008217
0.005742
0.005749
0.002967
0.003021
0.004652
0.004628
0.003379
0.003362
0.001902
0.001945
0.005712
0.005753
0.007748
0.007721
0.009101
0.009133
0.007994
0.006157
0.007858
0.007800
0.001982
0.002021
0.003651
0.003667
0.001347
0.001292
0.009089
0.009095
0.008953
0.009187
0.009238
0.008034
0.009170
0.004390
0.006998
0.005969
0.002603
0.001219
0.005482
0.003030
0.004433
0.001652
0.006214
0.007980
0.008759
0.008993
0.008998
0.008759
0.008764
0.009016
0.008977
0.004318
0.004337
0.001140
0.001159
0.004218
0.004216
0.006577
0.006554
0.008362
0.008389
0.005222
0.005196
0.003389
0.003367
0.007507
0.007633
0.008498
0.008450
0.007575
0.007576
0.006450
0.006451
0.001891
0.001866
0.003051
0.003038
0.005490
0.005490
0.008726
0.009051
0.007172
0.006876
0.002095
0.002077
0.001282
0.001272
0.007027
0.007034
0.009066
0.009053
0.003690
0.003687
0.009269
0.009225
0.009465
0.009384
0.009379
0.009402
0.009356
0.009303
0.009457
0.009377
0.009357
0.009363
0.009406
0.009264
0.009283
0.009354
0.009289
0.009401
0.009256
0.009443
0.009423
0.009448
0.009428
0.009366
0.009254
0.009227
0.009381
0.009446
0.009437
0.009342
0.009396
0.009310
0.009416
0.009319
0.009382
0.009355
0.009380
0.009272
0.009396
0.009271
0.009320
0.009407
0.009329
0.009255
0.009443
0.009426
0.009437
0.009383
0.009275
0.009336
0.009376
0.009258
0.007536
0.005777
0.009325
0.009273
0.009322
0.009038
0.009273
0.009191
0.009221
0.008951
0.009213
0.008905
0.009260
0.008996
0.009222
0.008920
0.008911
0.007652
0.005930
0.003766
0.001416
0.001266
0.003626
0.007851
0.007094
0.003024
0.003042
0.004176
0.005260
0.005256
0.006229
0.007877
0.008465
0.008490
0.007840
0.007110
0.008436
0.001876
0.001874
0.000818
0.001853
0.001798
0.001797
0.006241
0.008003
0.009294
0.009342
0.009356
0.009031
0.008888
0.001005
0.000901
0.005276
0.003082
0.007239
0.007226
0.007993
0.007276
0.008017
0.007988
0.002023
0.002028
0.007078
0.006213
0.009022
0.009085
0.008590
0.005251
0.009295
0.009322
0.009337
0.009328
0.001809
0.001806
0.007142
0.007196
0.003274
0.007335
0.006280
0.001868
0.001863
0.000799
0.003042
0.000948
0.003201
0.003227
0.003236
0.004370
0.002059
