# vtk DataFile Version 2.0
Unstructured Grid Example
ASCII
DATASET UNSTRUCTURED_GRID
POINTS 507 float
0.000510 0.500429 0.043637 
0.500825 0.000217 0.043962 
0.000573 -0.500060 0.043376 
-0.499759 0.000203 0.043193 
-0.000352 0.499805 3.956978 
0.499795 -0.000274 3.956967 
-0.000441 -0.500483 3.956230 
-0.500703 -0.000325 3.956025 
0.191921 0.462232 0.043695 
0.354249 0.353871 0.043850 
0.462601 0.191586 0.043884 
0.462612 -0.191223 0.043770 
0.354235 -0.353566 0.043697 
0.191933 -0.461881 0.043531 
-0.190838 -0.461936 0.043177 
-0.353192 -0.353421 0.043003 
-0.461660 -0.191168 0.043109 
-0.461648 0.191568 0.043155 
-0.353136 0.353911 0.043198 
-0.190876 0.462343 0.043475 
0.191041 0.461709 3.957044 
0.353226 0.353266 3.957138 
0.461684 0.191077 3.957107 
0.461693 -0.191707 3.956868 
0.353194 -0.353918 3.956755 
0.190950 -0.462386 3.956457 
-0.191853 -0.462399 3.956067 
-0.354213 -0.353904 3.956060 
-0.462655 -0.191654 3.955905 
-0.462572 0.191047 3.956256 
-0.354053 0.353342 3.956584 
-0.191782 0.461766 3.956831 
0.000334 0.500941 0.243105 
0.000157 0.501718 0.441568 
-0.000129 0.502442 0.638783 
-0.000196 0.503076 0.835141 
-0.000342 0.503621 1.030790 
-0.000349 0.504121 1.225585 
-0.000381 0.504552 1.419741 
-0.000306 0.504855 1.613357 
-0.000209 0.505070 1.806627 
-0.000072 0.505206 1.999974 
0.000103 0.505249 2.193113 
0.000262 0.505035 2.386548 
0.000331 0.504678 2.580339 
0.000317 0.504498 2.774365 
0.000213 0.504004 2.969370 
0.000319 0.503377 3.165037 
0.000130 0.502290 3.361586 
-0.000053 0.501748 3.558986 
-0.000201 0.500741 3.757486 
0.000344 -0.500721 0.242813 
0.000148 -0.501652 0.441289 
-0.000079 -0.502391 0.638726 
-0.000297 -0.503140 0.835035 
-0.000323 -0.503819 1.030648 
-0.000423 -0.504381 1.225468 
-0.000358 -0.504903 1.419774 
-0.000299 -0.505165 1.613429 
-0.000186 -0.505311 1.806829 
-0.000020 -0.505360 2.000101 
0.000112 -0.505183 2.193304 
0.000259 -0.504888 2.386674 
0.000334 -0.504459 2.580355 
0.000352 -0.504127 2.774416 
0.000345 -0.503628 2.969266 
0.000240 -0.502972 3.164833 
0.000057 -0.502299 3.361089 
-0.000027 -0.501689 3.558428 
-0.000238 -0.501029 3.756727 
0.501223 0.000129 0.243386 
0.501809 0.000120 0.441881 
0.502533 0.000023 0.639177 
0.502813 -0.000012 0.835272 
0.503534 -0.000124 1.030813 
0.503988 -0.000102 1.225674 
0.504382 -0.000214 1.419865 
0.504655 -0.000167 1.613254 
0.504978 -0.000119 1.806540 
0.505275 -0.000057 1.999819 
0.505342 0.000018 2.193009 
0.505157 0.000122 2.386526 
0.504852 0.000167 2.580336 
0.504610 0.000134 2.774412 
0.504059 0.000160 2.969596 
0.503181 0.000214 3.165182 
0.502422 0.000155 3.361323 
0.501719 -0.000042 3.558881 
0.500706 -0.000192 3.757480 
-0.500525 0.000168 0.242645 
-0.501565 0.000091 0.441069 
-0.502375 0.000041 0.638443 
-0.503195 -0.000084 0.834853 
-0.504012 -0.000120 1.030589 
-0.504622 -0.000193 1.225544 
-0.505038 -0.000217 1.419813 
-0.505248 -0.000189 1.613476 
-0.505320 -0.000119 1.806870 
-0.505357 -0.000070 2.000192 
-0.505124 -0.000006 2.193394 
-0.504784 0.000048 2.386740 
-0.504354 0.000144 2.580423 
-0.504066 0.000145 2.774570 
-0.503539 0.000274 2.969189 
-0.502864 0.000172 3.164695 
-0.502116 0.000152 3.360941 
-0.501861 0.000061 3.558091 
-0.501251 -0.000159 3.756504 
0.354313 -0.356442 0.718482 
0.353483 -0.355061 0.251884 
0.356562 -0.357104 1.494981 
0.355385 -0.356313 0.965764 
0.356910 -0.357319 1.690008 
0.356362 -0.356894 1.236416 
0.357178 -0.357369 1.923613 
0.356792 -0.356325 2.774612 
0.357354 -0.356982 2.380336 
0.357066 -0.356543 2.604121 
0.357325 -0.357240 2.154065 
0.356664 -0.356225 2.909130 
0.367830 -0.342397 3.312885 
0.354661 -0.354697 3.583294 
0.201720 -0.458556 3.763638 
0.458149 -0.202077 3.764071 
0.162296 -0.474401 3.607007 
0.474460 -0.162499 3.607445 
0.175669 -0.469646 0.360851 
0.468907 -0.177987 0.361070 
0.192649 -0.466149 1.228159 
0.465610 -0.193168 1.228199 
0.190580 -0.468003 2.035696 
0.467949 -0.190633 2.035539 
0.150345 -0.481642 2.568533 
0.482118 -0.149820 2.568464 
0.480801 -0.151125 2.976329 
0.151621 -0.480345 2.976102 
0.465954 -0.187184 3.432396 
0.187313 -0.465841 3.432225 
0.214419 -0.454970 3.193720 
0.475010 -0.165165 3.216949 
0.463283 -0.194475 0.585491 
0.192173 -0.464112 0.585798 
0.475058 -0.164540 0.834660 
0.163406 -0.475725 0.834190 
0.467028 -0.188399 1.087117 
0.187651 -0.467621 1.086938 
0.192745 -0.466411 1.369868 
0.465903 -0.193286 1.369891 
0.466185 -0.193455 1.565483 
0.192909 -0.466627 1.565487 
0.178458 -0.472690 1.789799 
0.472353 -0.178763 1.789680 
0.185053 -0.469862 2.382774 
0.470212 -0.184647 2.382660 
0.193264 -0.465654 2.773998 
0.466192 -0.192805 2.774015 
0.350821 -0.359102 0.498090 
0.353735 -0.354228 3.823408 
0.379452 -0.330719 3.110509 
0.282859 -0.416599 3.047309 
0.227327 -0.451171 2.229191 
0.451340 -0.227155 2.229101 
0.091813 -0.496889 1.906122 
0.496706 -0.091989 1.905960 
0.100073 -0.490640 3.858140 
0.490102 -0.100627 3.858782 
0.272010 -0.425271 2.485714 
0.425725 -0.271546 2.485609 
0.189071 -0.463499 0.164668 
0.463774 -0.189381 0.164868 
-0.355767 -0.355603 0.805973 
-0.365353 -0.343054 0.372224 
-0.355270 -0.355209 0.627747 
-0.357402 -0.357305 1.690910 
-0.357262 -0.357130 1.505458 
-0.356982 -0.356766 1.257606 
-0.356473 -0.356253 1.030487 
-0.357362 -0.357360 1.901640 
-0.356327 -0.356496 2.774590 
-0.356542 -0.356698 2.590468 
-0.356794 -0.356945 2.436190 
-0.357242 -0.357304 2.069327 
-0.355955 -0.356098 2.959004 
-0.355417 -0.355430 3.228267 
-0.365779 -0.343265 3.626418 
-0.355063 -0.355127 3.378403 
-0.471478 -0.170431 3.729038 
-0.470832 -0.170133 0.269414 
-0.253377 -0.432394 3.767241 
-0.258289 -0.428683 0.225120 
-0.209738 -0.459593 2.167550 
-0.459514 -0.209843 2.167583 
-0.149880 -0.480342 0.844599 
-0.480453 -0.149646 0.844546 
-0.167216 -0.476896 1.989016 
-0.476898 -0.167251 1.989071 
-0.177739 -0.471992 2.574935 
-0.471867 -0.177919 2.574992 
-0.465189 -0.192618 2.965592 
-0.192477 -0.465301 2.965596 
-0.462164 -0.194830 0.446130 
-0.214294 -0.453490 0.441643 
-0.462459 -0.194960 3.549177 
-0.184479 -0.466674 3.528106 
-0.463985 -0.192612 0.634448 
-0.192690 -0.463959 0.634568 
-0.464914 -0.190210 3.301632 
-0.188479 -0.465762 3.297999 
-0.191725 -0.465164 3.097248 
-0.464948 -0.192092 3.097812 
-0.469042 -0.184437 1.031593 
-0.184666 -0.468858 1.031715 
-0.459862 -0.208652 1.351068 
-0.208840 -0.459702 1.351072 
-0.466790 -0.193462 1.565850 
-0.193588 -0.466675 1.565843 
-0.189181 -0.468593 1.761359 
-0.468637 -0.189109 1.761373 
-0.465769 -0.192889 2.774458 
-0.192690 -0.465904 2.774405 
-0.388101 -0.317074 3.803419 
-0.387235 -0.316804 0.195271 
-0.357074 -0.357194 2.238386 
-0.476408 -0.166970 2.368153 
-0.166786 -0.476521 2.368127 
-0.271207 -0.424224 0.926540 
-0.424402 -0.271005 0.926486 
-0.114215 -0.487699 3.824188 
-0.116335 -0.486663 0.172331 
-0.448819 -0.230345 1.179341 
-0.230561 -0.448555 1.179388 
-0.112035 -0.488608 3.685622 
-0.119602 -0.486521 0.306239 
-0.492487 -0.092214 3.849215 
-0.491667 -0.091821 0.149706 
-0.355609 0.355440 0.740678 
-0.355133 0.355162 0.604147 
-0.342922 0.365653 0.368368 
-0.357296 0.356758 1.482827 
-0.357410 0.356982 1.686908 
-0.356276 0.355924 0.944363 
-0.357067 0.356488 1.281941 
-0.356346 0.356810 2.774329 
-0.357369 0.357177 1.923019 
-0.357203 0.357244 2.154094 
-0.356430 0.356926 2.603531 
-0.356845 0.357139 2.381349 
-0.355632 0.356034 3.134140 
-0.355955 0.356546 2.957164 
-0.344975 0.364075 3.604025 
-0.352615 0.357625 3.427988 
-0.194945 0.461378 3.767771 
-0.169968 0.471274 0.269101 
-0.420791 0.271642 3.802508 
-0.428905 0.258096 0.224472 
-0.155348 0.476758 3.615668 
-0.471260 0.171239 3.663416 
-0.208510 0.456771 3.432544 
-0.453364 0.216016 3.432802 
-0.449135 0.228532 1.032214 
-0.229016 0.448712 1.032383 
-0.185025 0.467918 0.849130 
-0.468130 0.184711 0.848917 
-0.467998 0.190542 2.035473 
-0.190609 0.467874 2.035367 
-0.481551 0.150130 2.568366 
-0.149640 0.481909 2.568319 
-0.462788 0.198094 3.041511 
-0.197317 0.463435 3.041428 
-0.194764 0.462290 0.446923 
-0.454427 0.212257 0.437294 
-0.469626 0.178516 0.636051 
-0.178601 0.469633 0.636286 
-0.463578 0.198785 1.180766 
-0.199349 0.463050 1.180841 
-0.469728 0.184800 2.382964 
-0.184530 0.470083 2.382783 
-0.466580 0.192916 1.366801 
-0.193470 0.465993 1.366756 
-0.466753 0.193019 1.562657 
-0.193549 0.466307 1.562636 
-0.178862 0.472418 1.788707 
-0.472727 0.178494 1.788842 
-0.456428 0.213742 2.812367 
-0.213253 0.457008 2.812220 
-0.464499 0.192312 3.229956 
-0.189964 0.465611 3.230014 
-0.316593 0.387777 0.194438 
-0.317031 0.387552 3.815751 
-0.353754 0.356852 3.291565 
-0.356723 0.356175 1.108927 
-0.092559 0.494133 0.739964 
-0.494184 0.092363 0.739689 
-0.451071 0.227178 2.229443 
-0.227094 0.451249 2.229305 
-0.425162 0.271818 2.485624 
-0.271375 0.425546 2.485567 
-0.496927 0.091803 1.905920 
-0.092031 0.496707 1.905718 
-0.098760 0.490540 3.859695 
-0.486508 0.116650 0.171835 
-0.486502 0.119430 0.304890 
-0.091587 0.492221 0.149960 
-0.483951 0.129285 3.827989 
0.356299 0.354395 0.715774 
0.355571 0.353273 0.252022 
0.356527 0.356792 1.405689 
0.355928 0.355686 0.946090 
0.356153 0.356319 1.144500 
0.356817 0.356978 1.670277 
0.357169 0.357195 1.918961 
0.356878 0.356760 2.774511 
0.357283 0.357130 2.380237 
0.357006 0.356850 2.604080 
0.357364 0.357305 2.152546 
0.356658 0.356563 2.909272 
0.342542 0.367830 3.313052 
0.354712 0.354698 3.583543 
0.458147 0.201728 3.764239 
0.201697 0.458160 3.764215 
0.474471 0.162384 3.607579 
0.162356 0.474469 3.607557 
0.469971 0.175532 0.361229 
0.178376 0.468761 0.360980 
0.192752 0.466144 1.413145 
0.465951 0.193015 1.413258 
0.190533 0.467904 2.033625 
0.467982 0.190562 2.033585 
0.482005 0.150141 2.568481 
0.150308 0.481869 2.568474 
0.151457 0.480698 2.976199 
0.480788 0.151440 2.976318 
0.187247 0.465818 3.432696 
0.465904 0.187420 3.432575 
0.465718 0.192893 1.273534 
0.192647 0.465840 1.273405 
0.192888 0.466373 1.555035 
0.466093 0.193108 1.554983 
0.455098 0.214345 3.194027 
0.165559 0.475105 3.217022 
[...]
POINT_DATA 507
SCALARS u float 1
LOOKUP_TABLE default
0.009236
0.009306
0.009181
0.009142
0.009106
0.009108
0.009265
0.009308
0.009249
0.009282
0.009289
0.009265
0.009249
0.009214
0.009139
0.009101
0.009124
0.009134
0.009143
0.009202
0.009092
0.009072
0.009078
0.009129
0.009153
0.009216
0.009299
0.009301
0.009334
0.009259
0.009189
0.009137
0.009125
0.008805
0.008224
0.007466
0.006562
0.005485
0.004288
0.003008
0.001766
0.001102
0.001833
0.003040
0.004278
0.005509
0.006538
0.007434
0.008144
0.008688
0.008999
0.009062
0.008745
0.008212
0.007445
0.006537
0.005470
0.004312
0.003046
0.001831
0.001135
0.001792
0.003005
0.004264
0.005485
0.006550
0.007469
0.008250
0.008806
0.009161
0.009186
0.008872
0.008309
0.007489
0.006564
0.005499
0.004306
0.002973
0.001740
0.001117
0.001862
0.003053
0.004287
0.005503
0.006492
0.007400
0.008202
0.008710
0.009000
0.009026
0.008698
0.008152
0.007407
0.006529
0.005494
0.004327
0.003061
0.001839
0.001135
0.001769
0.002984
0.004245
0.005450
0.006564
0.007497
0.008279
0.008878
0.009209
0.007996
0.009139
0.003772
0.006855
0.002515
0.005435
0.001241
0.005448
0.003009
0.004417
0.001619
0.006237
0.008014
0.008812
0.009122
0.009030
0.008879
0.008788
0.008935
0.008996
0.005452
0.005450
0.001156
0.001158
0.004194
0.004223
0.006550
0.006590
0.008426
0.008462
0.007571
0.007644
0.008433
0.008414
0.007558
0.007451
0.006262
0.006230
0.004607
0.004600
0.003318
0.003332
0.001911
0.001864
0.003005
0.003040
0.005467
0.005475
0.008679
0.009129
0.007200
0.006910
0.002029
0.002054
0.001320
0.001275
0.009217
0.009080
0.003662
0.003691
0.009195
0.009241
0.007523
0.008810
0.008197
0.002591
0.003766
0.005290
0.006528
0.001382
0.005446
0.004321
0.003313
0.001213
0.006514
0.007780
0.009020
0.008344
0.009191
0.008994
0.009219
0.009031
0.001629
0.001620
0.007381
0.007370
0.001141
0.001145
0.004219
0.004204
0.006552
0.006553
0.008643
0.008688
0.008860
0.008762
0.008171
0.008197
0.008034
0.008046
0.007202
0.007208
0.006520
0.006544
0.004750
0.004748
0.003389
0.003384
0.002128
0.002132
0.005476
0.005489
0.009252
0.009045
0.002017
0.002853
0.002862
0.007008
0.006997
0.009243
0.009113
0.005731
0.005736
0.009071
0.008957
0.009293
0.009095
0.007847
0.008301
0.008864
0.003905
0.002572
0.006996
0.005152
0.005508
0.001259
0.001579
0.004441
0.002966
0.007357
0.006526
0.008855
0.008420
0.009057
0.009076
0.009168
0.009050
0.008823
0.009020
0.008428
0.008478
0.006531
0.006562
0.007422
0.007378
0.001146
0.001132
0.004188
0.004208
0.006904
0.006925
0.008738
0.008719
0.008167
0.008217
0.005742
0.005749
0.002967
0.003021
0.004652
0.004628
0.003379
0.003362
0.001902
0.001945
0.005712
0.005753
0.007748
0.007721
0.009101
0.009133
0.007994
0.006157
0.007858
0.007800
0.001982
0.002021
0.003651
0.003667
0.001347
0.001292
0.009089
0.009095
0.008953
0.009187
0.009238
0.008034
0.009170
0.004390
0.006998
0.005969
0.002603
0.001219
0.005482
0.003030
0.004433
0.001652
0.006214
0.007980
0.008759
0.008993
0.008998
0.008759
0.008764
0.009016
0.008977
0.004318
0.004337
0.001140
0.001159
0.004218
0.004216
0.006577
0.006554
0.008362
0.008389
0.005222
0.005196
0.003389
0.003367
0.007507
0.007633
0.008498
0.008450
0.007575
0.007576
0.006450
0.006451
0.001891
0.001866
0.003051
0.003038
0.005490
0.005490
0.008726
0.009051
0.007172
0.006876
0.002095
0.002077
0.001282
0.001272
0.007027
0.007034
0.009066
0.009053
0.003690
0.003687
0.009269
0.009225
0.009465
0.009384
0.009379
0.009402
0.009356
0.009303
0.009457
0.009377
0.009357
0.009363
0.009406
0.009264
0.009283
0.009354
0.009289
0.009401
0.009256
0.009443
0.009423
0.009448
0.009428
0.009366
0.009254
0.009227
0.009381
0.009446
0.009437
0.009342
0.009396
0.009310
0.009416
0.009319
0.009382
0.009355
0.009380
0.009272
0.009396
0.009271
0.009320
0.009407
0.009329
0.009255
0.009443
0.009426
0.009437
0.009383
0.009275
0.009336
0.009376
0.009258
0.007536
0.005777
0.009325
0.009273
0.009322
0.009038
0.009273
0.009191
0.009221
0.008951
0.009213
0.008905
0.009260
0.008996
0.009222
0.008920
0.008911
0.007652
0.005930
0.003766
0.001416
0.001266
0.003626
0.007851
0.007094
0.003024
0.003042
0.004176
0.005260
0.005256
0.006229
0.007877
0.008465
0.008490
0.007840
0.007110
0.008436
0.001876
0.001874
0.000818
0.001853
0.001798
0.001797
0.006241
0.008003
0.009294
0.009342
0.009356
0.009031
0.008888
0.001005
0.000901
0.005276
0.003082
0.007239
0.007226
0.007993
0.007276
0.008017
0.007988
0.002023
0.002028
0.007078
0.006213
0.009022
0.009085
0.008590
0.005251
0.009295
0.009322
0.009337
0.009328
0.001809
0.001806
0.007142
0.007196
0.003274
0.007335
0.006280
0.001868
0.001863
0.000799
0.003042
0.000948
0.003201
0.003227
0.003236
0.004370
0.002059
