# vtk DataFile Version 2.0
Unstructured Grid Example
ASCII
DATASET UNSTRUCTURED_GRID
POINTS 507 float
-0.000201 0.499831 -0.017162 
0.499676 -0.000085 -0.017290 
-0.000225 -0.499976 -0.017059 
-0.500095 -0.000080 -0.016987 
0.000139 0.500077 4.016920 
0.500080 0.000108 4.016925 
0.000173 -0.499810 4.017214 
-0.499723 0.000128 4.017295 
0.191114 0.461825 -0.017185 
0.353280 0.353429 -0.017246 
0.461680 0.191246 -0.017259 
0.461675 -0.191389 -0.017214 
0.353285 -0.353548 -0.017186 
0.191109 -0.461963 -0.017121 
-0.191540 -0.461941 -0.016981 
-0.353696 -0.353605 -0.016913 
-0.462050 -0.191410 -0.016954 
-0.462054 0.191253 -0.016973 
-0.353718 0.353413 -0.016989 
-0.191525 0.461781 -0.017099 
0.191460 0.462031 4.016894 
0.353682 0.353666 4.016857 
0.462040 0.191446 4.016870 
0.462037 -0.191198 4.016964 
0.353695 -0.353410 4.017008 
0.191496 -0.461764 4.017125 
-0.191141 -0.461759 4.017279 
-0.353294 -0.353415 4.017281 
-0.461659 -0.191219 4.017342 
-0.461691 0.191458 4.017204 
-0.353357 0.353637 4.017075 
-0.191169 0.462008 4.016978 
-0.000131 0.499630 0.183047 
-0.000062 0.499325 0.383651 
0.000051 0.499040 0.584747 
0.000077 0.498790 0.786179 
0.000134 0.498576 0.987891 
0.000137 0.498379 1.189938 
0.000150 0.498210 1.392236 
0.000120 0.498091 1.594747 
0.000082 0.498006 1.797394 
0.000028 0.497953 2.000010 
-0.000041 0.497936 2.202709 
-0.000103 0.498020 2.405291 
-0.000130 0.498160 2.607733 
-0.000125 0.498231 2.810082 
-0.000084 0.498425 3.012047 
-0.000125 0.498672 3.213751 
-0.000051 0.499099 3.415108 
0.000021 0.499313 3.616131 
0.000079 0.499708 3.816721 
-0.000135 -0.499717 0.183162 
-0.000058 -0.499350 0.383761 
0.000031 -0.499059 0.584769 
0.000117 -0.498765 0.786221 
0.000127 -0.498498 0.987946 
0.000166 -0.498277 1.189984 
0.000141 -0.498072 1.392223 
0.000118 -0.497969 1.594718 
0.000073 -0.497911 1.797314 
0.000008 -0.497892 1.999960 
-0.000044 -0.497962 2.202633 
-0.000102 -0.498078 2.405241 
-0.000131 -0.498246 2.607726 
-0.000139 -0.498377 2.810062 
-0.000136 -0.498573 3.012087 
-0.000095 -0.498831 3.213831 
-0.000023 -0.499096 3.415303 
0.000011 -0.499336 3.616350 
0.000094 -0.499595 3.817019 
0.499519 -0.000051 0.182937 
0.499288 -0.000047 0.383528 
0.499004 -0.000009 0.584592 
0.498894 0.000005 0.786128 
0.498610 0.000049 0.987882 
0.498431 0.000040 1.189903 
0.498277 0.000084 1.392187 
0.498169 0.000065 1.594787 
0.498042 0.000047 1.797428 
0.497925 0.000022 2.000071 
0.497899 -0.000007 2.202750 
0.497972 -0.000048 2.405299 
0.498092 -0.000066 2.607734 
0.498187 -0.000053 2.810064 
0.498404 -0.000063 3.011958 
0.498749 -0.000084 3.213694 
0.499048 -0.000061 3.415212 
0.499324 0.000016 3.616172 
0.499723 0.000075 3.816723 
-0.499793 -0.000066 0.183228 
-0.499384 -0.000036 0.383848 
-0.499066 -0.000016 0.584881 
-0.498743 0.000033 0.786292 
-0.498422 0.000047 0.987970 
-0.498182 0.000076 1.189954 
-0.498019 0.000085 1.392208 
-0.497936 0.000074 1.594700 
-0.497908 0.000047 1.797298 
-0.497893 0.000028 1.999925 
-0.497985 0.000002 2.202598 
-0.498118 -0.000019 2.405215 
-0.498288 -0.000056 2.607699 
-0.498401 -0.000057 2.810001 
-0.498608 -0.000108 3.012118 
-0.498874 -0.000068 3.213885 
-0.499168 -0.000060 3.415361 
-0.499268 -0.000024 3.616482 
-0.499508 0.000063 3.817107 
0.351815 -0.353853 0.665968 
0.352132 -0.354405 0.191735 
0.352370 -0.352157 1.471012 
0.352533 -0.352768 0.920867 
0.352233 -0.352072 1.675018 
0.352449 -0.352239 1.201159 
0.352128 -0.352053 1.920009 
0.352280 -0.352463 2.809985 
0.352059 -0.352205 2.398815 
0.352172 -0.352377 2.632479 
0.352070 -0.352104 2.161790 
0.352330 -0.352503 2.949789 
0.365080 -0.340181 3.365523 
0.353118 -0.353104 3.641262 
0.201515 -0.457179 3.823676 
0.457339 -0.201375 3.823506 
0.161826 -0.472509 3.665430 
0.472485 -0.161746 3.665258 
0.174672 -0.467899 0.302066 
0.466773 -0.177521 0.301888 
0.190828 -0.460284 1.192795 
0.460496 -0.190623 1.192780 
0.187819 -0.461125 2.037427 
0.461146 -0.187798 2.037489 
0.147933 -0.475736 2.595399 
0.475549 -0.148139 2.595426 
0.475397 -0.149768 3.019088 
0.149573 -0.475576 3.019177 
0.463117 -0.186222 3.487788 
0.186172 -0.463162 3.487856 
0.212297 -0.451404 3.243386 
0.471102 -0.164077 3.267109 
0.460124 -0.193197 0.530075 
0.190874 -0.461144 0.530502 
0.471482 -0.163174 0.785052 
0.162440 -0.471627 0.785318 
0.462522 -0.186175 1.046197 
0.186145 -0.462419 1.046280 
0.190790 -0.460181 1.340251 
0.460381 -0.190577 1.340242 
0.460270 -0.190511 1.544663 
0.190726 -0.460096 1.544662 
0.176165 -0.465729 1.779577 
0.465861 -0.176045 1.779624 
0.182140 -0.463537 2.401289 
0.463399 -0.182299 2.401334 
0.190586 -0.460479 2.809516 
0.460267 -0.190766 2.809509 
0.348753 -0.357177 0.441025 
0.353482 -0.353288 3.883497 
0.375705 -0.327919 3.157677 
0.279757 -0.412724 3.092529 
0.223881 -0.444786 2.240408 
0.444719 -0.223949 2.240444 
0.090616 -0.489600 1.901543 
0.489672 -0.090547 1.901607 
0.100350 -0.489529 3.918807 
0.489740 -0.100132 3.918555 
0.267992 -0.419866 2.508861 
0.419688 -0.268174 2.508902 
0.188136 -0.463009 0.104145 
0.462390 -0.189265 0.104051 
-0.352683 -0.352747 0.756625 
-0.364265 -0.341836 0.314250 
-0.352878 -0.352902 0.573884 
-0.352040 -0.352078 1.675581 
-0.352095 -0.352147 1.481727 
-0.352205 -0.352290 1.223399 
-0.352405 -0.352492 0.987869 
-0.352055 -0.352056 1.896494 
-0.352463 -0.352396 2.809994 
-0.352378 -0.352317 2.618262 
-0.352279 -0.352219 2.456999 
-0.352103 -0.352078 2.072501 
-0.352609 -0.352553 3.001610 
-0.352820 -0.352815 3.279350 
-0.364098 -0.341753 3.685758 
-0.352960 -0.352934 3.433252 
-0.469763 -0.169699 3.789518 
-0.470007 -0.169843 0.210213 
-0.252293 -0.431151 3.827913 
-0.258204 -0.427950 0.165670 
-0.206823 -0.452976 2.175473 
-0.453007 -0.206782 2.175460 
-0.148195 -0.476223 0.796215 
-0.476179 -0.148287 0.796235 
-0.164740 -0.469847 1.988230 
-0.469846 -0.164726 1.988208 
-0.175907 -0.466207 2.602038 
-0.466257 -0.175836 2.602015 
-0.460662 -0.190840 3.008453 
-0.190895 -0.460618 3.008451 
-0.460156 -0.194026 0.389270 
-0.213501 -0.451441 0.384489 
-0.460040 -0.193975 3.607445 
-0.183542 -0.464327 3.585734 
-0.460925 -0.191350 0.580757 
-0.191319 -0.460935 0.580709 
-0.461900 -0.189044 3.354426 
-0.187297 -0.462554 3.350855 
-0.190331 -0.461028 3.144461 
-0.460946 -0.190590 3.145072 
-0.463853 -0.182399 0.989033 
-0.182308 -0.463925 0.988985 
-0.453538 -0.205784 1.320578 
-0.205710 -0.453601 1.320577 
-0.460032 -0.190508 1.544794 
-0.190458 -0.460078 1.544797 
-0.186231 -0.461760 1.749490 
-0.461743 -0.186259 1.749485 
-0.460434 -0.190733 2.810045 
-0.190812 -0.460381 2.810066 
-0.386759 -0.316169 3.864304 
-0.386973 -0.316430 0.135724 
-0.352169 -0.352122 2.249637 
-0.470071 -0.164746 2.385696 
-0.164819 -0.470026 2.385706 
-0.268326 -0.420266 0.880667 
-0.420196 -0.268406 0.880688 
-0.113550 -0.486574 3.885022 
-0.116724 -0.486033 0.112343 
-0.443235 -0.227564 1.142135 
-0.227479 -0.443338 1.142116 
-0.111441 -0.486903 3.745314 
-0.119619 -0.485073 0.247291 
-0.491086 -0.091778 3.910376 
-0.491407 -0.091940 0.089829 
-0.352745 0.352812 0.689162 
-0.352932 0.352921 0.549588 
-0.341888 0.364147 0.310044 
-0.352081 0.352293 1.458053 
-0.352037 0.352205 1.671580 
-0.352483 0.352621 0.898584 
-0.352172 0.352399 1.248626 
-0.352455 0.352273 2.810096 
-0.352053 0.352128 1.919153 
-0.352118 0.352102 2.161559 
-0.352422 0.352227 2.632111 
-0.352259 0.352143 2.399662 
-0.352736 0.352578 3.182362 
-0.352609 0.352377 2.999794 
-0.343450 0.362534 3.662276 
-0.350586 0.355265 3.483330 
-0.194196 0.460375 3.827381 
-0.169908 0.469833 0.209370 
-0.419556 0.271362 3.862851 
-0.428454 0.257298 0.164903 
-0.154568 0.474918 3.673720 
-0.469379 0.170676 3.722766 
-0.207452 0.454020 3.487948 
-0.450728 0.214433 3.488529 
-0.444075 0.226391 0.989574 
-0.226200 0.444241 0.989507 
-0.183066 0.463941 0.800471 
-0.463857 0.183190 0.800555 
-0.461127 0.187834 2.037002 
-0.187807 0.461176 2.037044 
-0.475772 0.148017 2.595243 
-0.148210 0.475631 2.595261 
-0.458616 0.195794 3.086709 
-0.195667 0.458546 3.086722 
-0.194053 0.460107 0.389444 
-0.452566 0.211122 0.379933 
-0.466493 0.177304 0.582393 
-0.177271 0.466491 0.582301 
-0.457751 0.196816 1.143469 
-0.196594 0.457959 1.143440 
-0.463590 0.182239 2.401333 
-0.182345 0.463450 2.401404 
-0.460115 0.190723 1.336942 
-0.190505 0.460346 1.336960 
-0.460047 0.190682 1.541573 
-0.190474 0.460222 1.541581 
-0.176006 0.465836 1.778442 
-0.465714 0.176151 1.778389 
-0.451553 0.211022 2.849556 
-0.211153 0.451354 2.849611 
-0.461128 0.190490 3.280823 
-0.188859 0.461740 3.280684 
-0.316513 0.386760 0.134530 
-0.316080 0.387062 3.875866 
-0.351605 0.354118 3.344077 
-0.352307 0.352522 1.068798 
-0.091617 0.490444 0.688374 
-0.490423 0.091694 0.688482 
-0.444825 0.223939 2.240435 
-0.223973 0.444755 2.240490 
-0.419909 0.268067 2.508773 
-0.268241 0.419758 2.508796 
-0.489585 0.090619 1.901095 
-0.090530 0.489672 1.901174 
-0.098202 0.490108 3.919528 
-0.486189 0.116204 0.111963 
-0.485292 0.118824 0.245967 
-0.092032 0.491189 0.089488 
-0.482597 0.129373 3.888791 
0.353909 0.351783 0.663001 
0.354205 0.352215 0.191681 
0.352384 0.352280 1.377444 
0.352919 0.352415 0.900232 
0.352531 0.352466 1.105559 
0.352270 0.352207 1.654461 
0.352131 0.352121 1.915311 
0.352246 0.352292 2.810025 
0.352086 0.352147 2.398842 
0.352196 0.352257 2.632493 
0.352055 0.352078 2.160469 
0.352332 0.352370 2.949733 
0.340124 0.365080 3.365457 
0.353098 0.353103 3.641164 
0.457340 0.201512 3.823440 
0.201524 0.457335 3.823449 
0.472481 0.161791 3.665205 
0.161803 0.472482 3.665214 
0.467771 0.174726 0.301918 
0.177368 0.466830 0.301924 
0.190787 0.460286 1.385396 
0.460362 0.190684 1.385352 
0.187837 0.461164 2.035520 
0.461133 0.187826 2.035535 
0.475594 0.148013 2.595414 
0.147947 0.475647 2.595417 
0.149637 0.475437 3.019139 
0.475402 0.149644 3.019092 
0.186198 0.463171 3.487670 
0.463137 0.186130 3.487718 
0.460454 0.190732 1.239629 
0.190828 0.460406 1.239680 
0.190734 0.460196 1.533708 
0.460306 0.190647 1.533728 
0.451353 0.212327 3.243265 
[...]
POINT_DATA 507
SCALARS u float 1
LOOKUP_TABLE default
0.009236
0.009306
0.009181
0.009142
0.009106
0.009108
0.009265
0.009308
0.009249
0.009282
0.009289
0.009265
0.009249
0.009214
0.009139
0.009101
0.009124
0.009134
0.009143
0.009202
0.009092
0.009072
0.009078
0.009129
0.009153
0.009216
0.009299
0.009301
0.009334
0.009259
0.009189
0.009137
0.009125
0.008805
0.008224
0.007466
0.006562
0.005485
0.004288
0.003008
0.001766
0.001102
0.001833
0.003040
0.004278
0.005509
0.006538
0.007434
0.008144
0.008688
0.008999
0.009062
0.008745
0.008212
0.007445
0.006537
0.005470
0.004312
0.003046
0.001831
0.001135
0.001792
0.003005
0.004264
0.005485
0.006550
0.007469
0.008250
0.008806
0.009161
0.009186
0.008872
0.008309
0.007489
0.006564
0.005499
0.004306
0.002973
0.001740
0.001117
0.001862
0.003053
0.004287
0.005503
0.006492
0.007400
0.008202
0.008710
0.009000
0.009026
0.008698
0.008152
0.007407
0.006529
0.005494
0.004327
0.003061
0.001839
0.001135
0.001769
0.002984
0.004245
0.005450
0.006564
0.007497
0.008279
0.008878
0.009209
0.007996
0.009139
0.003772
0.006855
0.002515
0.005435
0.001241
0.005448
0.003009
0.004417
0.001619
0.006237
0.008014
0.008812
0.009122
0.009030
0.008879
0.008788
0.008935
0.008996
0.005452
0.005450
0.001156
0.001158
0.004194
0.004223
0.006550
0.006590
0.008426
0.008462
0.007571
0.007644
0.008433
0.008414
0.007558
0.007451
0.006262
0.006230
0.004607
0.004600
0.003318
0.003332
0.001911
0.001864
0.003005
0.003040
0.005467
0.005475
0.008679
0.009129
0.007200
0.006910
0.002029
0.002054
0.001320
0.001275
0.009217
0.009080
0.003662
0.003691
0.009195
0.009241
0.007523
0.008810
0.008197
0.002591
0.003766
0.005290
0.006528
0.001382
0.005446
0.004321
0.003313
0.001213
0.006514
0.007780
0.009020
0.008344
0.009191
0.008994
0.009219
0.009031
0.001629
0.001620
0.007381
0.007370
0.001141
0.001145
0.004219
0.004204
0.006552
0.006553
0.008643
0.008688
0.008860
0.008762
0.008171
0.008197
0.008034
0.008046
0.007202
0.007208
0.006520
0.006544
0.004750
0.004748
0.003389
0.003384
0.002128
0.002132
0.005476
0.005489
0.009252
0.009045
0.002017
0.002853
0.002862
0.007008
0.006997
0.009243
0.009113
0.005731
0.005736
0.009071
0.008957
0.009293
0.009095
0.007847
0.008301
0.008864
0.003905
0.002572
0.006996
0.005152
0.005508
0.001259
0.001579
0.004441
0.002966
0.007357
0.006526
0.008855
0.008420
0.009057
0.009076
0.009168
0.009050
0.008823
0.009020
0.008428
0.008478
0.006531
0.006562
0.007422
0.007378
0.001146
0.001132
0.004188
0.004208
0.006904
0.006925
0.008738
0.008719
0.008167
0.008217
0.005742
0.005749
0.002967
0.003021
0.004652
0.004628
0.003379
0.003362
0.001902
0.001945
0.005712
0.005753
0.007748
0.007721
0.009101
0.009133
0.007994
0.006157
0.007858
0.007800
0.001982
0.002021
0.003651
0.003667
0.001347
0.001292
0.009089
0.009095
0.008953
0.009187
0.009238
0.008034
0.009170
0.004390
0.006998
0.005969
0.002603
0.001219
0.005482
0.003030
0.004433
0.001652
0.006214
0.007980
0.008759
0.008993
0.008998
0.008759
0.008764
0.009016
0.008977
0.004318
0.004337
0.001140
0.001159
0.004218
0.004216
0.006577
0.006554
0.008362
0.008389
0.005222
0.005196
0.003389
0.003367
0.007507
0.007633
0.008498
0.008450
0.007575
0.007576
0.006450
0.006451
0.001891
0.001866
0.003051
0.003038
0.005490
0.005490
0.008726
0.009051
0.007172
0.006876
0.002095
0.002077
0.001282
0.001272
0.007027
0.007034
0.009066
0.009053
0.003690
0.003687
0.009269
0.009225
0.009465
0.009384
0.009379
0.009402
0.009356
0.009303
0.009457
0.009377
0.009357
0.009363
0.009406
0.009264
0.009283
0.009354
0.009289
0.009401
0.009256
0.009443
0.009423
0.009448
0.009428
0.009366
0.009254
0.009227
0.009381
0.009446
0.009437
0.009342
0.009396
0.009310
0.009416
0.009319
0.009382
0.009355
0.009380
0.009272
0.009396
0.009271
0.009320
0.009407
0.009329
0.009255
0.009443
0.009426
0.009437
0.009383
0.009275
0.009336
0.009376
0.009258
0.007536
0.005777
0.009325
0.009273
0.009322
0.009038
0.009273
0.009191
0.009221
0.008951
0.009213
0.008905
0.009260
0.008996
0.009222
0.008920
0.008911
0.007652
0.005930
0.003766
0.001416
0.001266
0.003626
0.007851
0.007094
0.003024
0.003042
0.004176
0.005260
0.005256
0.006229
0.007877
0.008465
0.008490
0.007840
0.007110
0.008436
0.001876
0.001874
0.000818
0.001853
0.001798
0.001797
0.006241
0.008003
0.009294
0.009342
0.009356
0.009031
0.008888
0.001005
0.000901
0.005276
0.003082
0.007239
0.007226
0.007993
0.007276
0.008017
0.007988
0.002023
0.002028
0.007078
0.006213
0.009022
0.009085
0.008590
0.005251
0.009295
0.009322
0.009337
0.009328
0.001809
0.001806
0.007142
0.007196
0.003274
0.007335
0.006280
0.001868
0.001863
0.000799
0.003042
0.000948
0.003201
0.003227
0.003236
0.004370
0.002059
