# vtk DataFile Version 2.0
Unstructured Grid Example
ASCII
DATASET UNSTRUCTURED_GRID
POINTS 507 float
-0.000152 0.499872 -0.013009 
0.499754 -0.000065 -0.013106 
-0.000171 -0.499982 -0.012932 
-0.500072 -0.000061 -0.012877 
0.000105 0.500058 4.012826 
0.500061 0.000082 4.012829 
0.000131 -0.499856 4.013049 
-0.499790 0.000097 4.013110 
0.191169 0.461853 -0.013027 
0.353346 0.353459 -0.013073 
0.461743 0.191269 -0.013083 
0.461739 -0.191377 -0.013049 
0.353350 -0.353550 -0.013027 
0.191165 -0.461957 -0.012978 
-0.191492 -0.461941 -0.012872 
-0.353661 -0.353593 -0.012820 
-0.462023 -0.191394 -0.012852 
-0.462027 0.191274 -0.012866 
-0.353678 0.353447 -0.012879 
-0.191481 0.461819 -0.012961 
0.191431 0.462009 4.012806 
0.353651 0.353639 4.012779 
0.462016 0.191420 4.012788 
0.462013 -0.191233 4.012859 
0.353660 -0.353445 4.012892 
0.191458 -0.461807 4.012981 
-0.191189 -0.461803 4.013098 
-0.353357 -0.353449 4.013100 
-0.461727 -0.191249 4.013146 
-0.461751 0.191430 4.013041 
-0.353405 0.353616 4.012944 
-0.191211 0.461992 4.012870 
-0.000100 0.499719 0.187149 
-0.000047 0.499488 0.387607 
0.000038 0.499272 0.588438 
0.000059 0.499083 0.789523 
0.000102 0.498921 0.990821 
0.000104 0.498771 1.192372 
0.000114 0.498643 1.394115 
0.000091 0.498553 1.596018 
0.000062 0.498489 1.798024 
0.000022 0.498448 2.000008 
-0.000031 0.498435 2.202053 
-0.000078 0.498499 2.404010 
-0.000099 0.498605 2.605862 
-0.000095 0.498659 2.807642 
-0.000064 0.498806 3.009132 
-0.000095 0.498993 3.210423 
-0.000039 0.499317 3.411452 
0.000016 0.499479 3.612228 
0.000060 0.499779 3.812675 
-0.000103 -0.499785 0.187236 
-0.000044 -0.499507 0.387691 
0.000024 -0.499287 0.588455 
0.000089 -0.499064 0.789555 
0.000096 -0.498861 0.990863 
0.000126 -0.498694 1.192407 
0.000107 -0.498538 1.394105 
0.000089 -0.498460 1.595996 
0.000056 -0.498417 1.797964 
0.000006 -0.498402 1.999970 
-0.000034 -0.498455 2.201996 
-0.000077 -0.498543 2.403973 
-0.000100 -0.498671 2.605857 
-0.000105 -0.498770 2.807627 
-0.000103 -0.498918 3.009163 
-0.000072 -0.499114 3.210484 
-0.000017 -0.499315 3.411601 
0.000008 -0.499496 3.612394 
0.000071 -0.499693 3.812901 
0.499635 -0.000039 0.187065 
0.499461 -0.000036 0.387514 
0.499245 -0.000007 0.588320 
0.499161 0.000004 0.789485 
0.498946 0.000037 0.990814 
0.498811 0.000030 1.192346 
0.498694 0.000064 1.394078 
0.498612 0.000050 1.596049 
0.498516 0.000036 1.798050 
0.498427 0.000017 2.000054 
0.498407 -0.000005 2.202084 
0.498463 -0.000036 2.404017 
0.498553 -0.000050 2.605862 
0.498626 -0.000040 2.807628 
0.498790 -0.000048 3.009064 
0.499052 -0.000064 3.210380 
0.499278 -0.000046 3.411531 
0.499488 0.000012 3.612259 
0.499790 0.000057 3.812677 
-0.499843 -0.000050 0.187286 
-0.499533 -0.000027 0.387756 
-0.499292 -0.000012 0.588539 
-0.499047 0.000025 0.789609 
-0.498804 0.000036 0.990881 
-0.498622 0.000058 1.192385 
-0.498498 0.000065 1.394093 
-0.498436 0.000056 1.595982 
-0.498414 0.000036 1.797952 
-0.498403 0.000021 1.999943 
-0.498472 0.000002 2.201970 
-0.498574 -0.000014 2.403953 
-0.498702 -0.000043 2.605836 
-0.498788 -0.000043 2.807581 
-0.498945 -0.000082 3.009186 
-0.499146 -0.000051 3.210525 
-0.499369 -0.000045 3.411645 
-0.499445 -0.000018 3.612494 
-0.499627 0.000048 3.812968 
0.351986 -0.354029 0.669554 
0.352224 -0.354450 0.195843 
0.352656 -0.352495 1.472649 
0.352728 -0.353010 0.923934 
0.352553 -0.352431 1.676042 
0.352716 -0.352557 1.203567 
0.352473 -0.352416 1.920255 
0.352588 -0.352727 2.807569 
0.352420 -0.352531 2.397553 
0.352506 -0.352662 2.630542 
0.352429 -0.352454 2.161262 
0.352626 -0.352757 2.947011 
0.365268 -0.340332 3.361928 
0.353223 -0.353213 3.637303 
0.201529 -0.457273 3.819576 
0.457395 -0.201423 3.819446 
0.161858 -0.472638 3.661440 
0.472620 -0.161798 3.661309 
0.174740 -0.468018 0.306081 
0.466919 -0.177553 0.305931 
0.190952 -0.460685 1.195211 
0.460845 -0.190797 1.195199 
0.188007 -0.461595 2.037309 
0.461611 -0.187991 2.037355 
0.148097 -0.476140 2.593564 
0.475998 -0.148254 2.593585 
0.475766 -0.149860 3.016167 
0.149713 -0.475902 3.016235 
0.463311 -0.186288 3.484005 
0.186250 -0.463345 3.484056 
0.212442 -0.451647 3.239994 
0.471369 -0.164152 3.263683 
0.460340 -0.193285 0.533860 
0.190963 -0.461346 0.534279 
0.471726 -0.163267 0.788441 
0.162506 -0.471907 0.788656 
0.462830 -0.186327 1.048992 
0.186248 -0.462774 1.049057 
0.190923 -0.460607 1.342274 
0.460758 -0.190762 1.342267 
0.460674 -0.190712 1.546085 
0.190875 -0.460542 1.546084 
0.176322 -0.466204 1.780275 
0.466305 -0.176231 1.780311 
0.182339 -0.463969 2.400024 
0.463865 -0.182460 2.400058 
0.190769 -0.460832 2.807090 
0.460672 -0.190905 2.807085 
0.348894 -0.357309 0.444923 
0.353499 -0.353352 3.879393 
0.375961 -0.328110 3.154455 
0.279968 -0.412989 3.089441 
0.224116 -0.445222 2.239642 
0.445171 -0.224168 2.239669 
0.090697 -0.490098 1.901856 
0.490153 -0.090645 1.901904 
0.100331 -0.489605 3.914663 
0.489765 -0.100166 3.914472 
0.268266 -0.420236 2.507280 
0.420100 -0.268405 2.507311 
0.188200 -0.463043 0.108278 
0.462485 -0.189273 0.108205 
-0.352893 -0.352942 0.759995 
-0.364340 -0.341919 0.318209 
-0.353042 -0.353060 0.577563 
-0.352406 -0.352435 1.676628 
-0.352448 -0.352487 1.483348 
-0.352531 -0.352596 1.225735 
-0.352683 -0.352749 0.990780 
-0.352418 -0.352418 1.896846 
-0.352727 -0.352676 2.807576 
-0.352662 -0.352616 2.616364 
-0.352587 -0.352542 2.455577 
-0.352454 -0.352435 2.072284 
-0.352837 -0.352795 2.998700 
-0.352998 -0.352994 3.275861 
-0.364213 -0.341856 3.681705 
-0.353103 -0.353084 3.429505 
-0.469880 -0.169749 3.785387 
-0.470063 -0.169863 0.214256 
-0.252367 -0.431236 3.823769 
-0.258210 -0.428000 0.169731 
-0.207022 -0.453428 2.174932 
-0.453452 -0.206991 2.174922 
-0.148310 -0.476504 0.799519 
-0.476471 -0.148380 0.799535 
-0.164909 -0.470329 1.988284 
-0.470328 -0.164898 1.988267 
-0.176032 -0.466602 2.600186 
-0.466640 -0.175979 2.600169 
-0.460971 -0.190961 3.005525 
-0.191003 -0.460938 3.005524 
-0.460293 -0.194081 0.393153 
-0.213556 -0.451581 0.388393 
-0.460205 -0.194043 3.603465 
-0.183606 -0.464487 3.581798 
-0.461134 -0.191436 0.584424 
-0.191413 -0.461142 0.584388 
-0.462105 -0.189123 3.350820 
-0.187378 -0.462773 3.347245 
-0.190426 -0.461310 3.141236 
-0.461219 -0.190692 3.141844 
-0.464207 -0.182538 0.991940 
-0.182469 -0.464262 0.991903 
-0.453970 -0.205980 1.322661 
-0.205923 -0.454018 1.322660 
-0.460494 -0.190710 1.546232 
-0.190672 -0.460528 1.546234 
-0.186432 -0.462227 1.750301 
-0.462214 -0.186453 1.750297 
-0.460798 -0.190881 2.807615 
-0.190940 -0.460758 2.807631 
-0.386850 -0.316231 3.860146 
-0.386991 -0.316456 0.139791 
-0.352504 -0.352468 2.248868 
-0.470503 -0.164898 2.384498 
-0.164953 -0.470470 2.384506 
-0.268523 -0.420536 0.883800 
-0.420484 -0.268583 0.883816 
-0.113596 -0.486651 3.880867 
-0.116697 -0.486076 0.116441 
-0.443616 -0.227754 1.144676 
-0.227689 -0.443695 1.144662 
-0.111481 -0.487020 3.741237 
-0.119618 -0.485172 0.251317 
-0.491182 -0.091808 3.906198 
-0.491425 -0.091932 0.093919 
-0.352941 0.352991 0.692681 
-0.353082 0.353074 0.553314 
-0.341959 0.364250 0.314027 
-0.352438 0.352598 1.459745 
-0.352404 0.352531 1.672627 
-0.352742 0.352847 0.901711 
-0.352506 0.352678 1.250902 
-0.352721 0.352582 2.807653 
-0.352416 0.352473 1.919417 
-0.352465 0.352453 2.161049 
-0.352696 0.352548 2.630159 
-0.352572 0.352484 2.398411 
-0.352934 0.352814 3.179068 
-0.352837 0.352661 2.996882 
-0.343554 0.362639 3.658298 
-0.350725 0.355427 3.479550 
-0.194247 0.460443 3.823310 
-0.169912 0.469932 0.213450 
-0.419640 0.271381 3.858729 
-0.428485 0.257352 0.168972 
-0.154622 0.475044 3.669755 
-0.469508 0.170714 3.718712 
-0.207524 0.454208 3.484164 
-0.450908 0.214541 3.484723 
-0.444421 0.226537 0.992486 
-0.226393 0.444547 0.992436 
-0.183200 0.464212 0.803795 
-0.464149 0.183294 0.803858 
-0.461596 0.188019 2.036897 
-0.187999 0.461633 2.036929 
-0.476167 0.148162 2.593407 
-0.148307 0.476060 2.593421 
-0.458901 0.195951 3.083622 
-0.195780 0.458880 3.083628 
-0.194101 0.460256 0.393370 
-0.452693 0.211200 0.383851 
-0.466707 0.177387 0.586058 
-0.177362 0.466705 0.585988 
-0.458149 0.196951 1.146017 
-0.196782 0.458306 1.145994 
-0.464009 0.182414 2.400078 
-0.182494 0.463903 2.400133 
-0.460556 0.190872 1.338982 
-0.190707 0.460731 1.338995 
-0.460505 0.190842 1.543013 
-0.190684 0.460638 1.543019 
-0.176201 0.466285 1.779143 
-0.466193 0.176311 1.779103 
-0.451886 0.211208 2.847016 
-0.211297 0.451740 2.847057 
-0.461358 0.190615 3.277349 
-0.188934 0.462005 3.277223 
-0.316519 0.386829 0.138621 
-0.316145 0.387095 3.871761 
-0.351752 0.354305 3.340490 
-0.352608 0.352772 1.071539 
-0.091681 0.490696 0.691897 
-0.490680 0.091740 0.691980 
-0.445252 0.224161 2.239685 
-0.224186 0.445198 2.239726 
-0.420268 0.268323 2.507192 
-0.268455 0.420153 2.507209 
-0.490087 0.090700 1.901424 
-0.090632 0.490153 1.901484 
-0.098241 0.490137 3.915442 
-0.486211 0.116234 0.116052 
-0.485375 0.118865 0.249992 
-0.092002 0.491260 0.093618 
-0.482690 0.129367 3.884638 
0.354072 0.351962 0.666606 
0.354298 0.352287 0.195802 
0.352667 0.352588 1.379373 
0.353125 0.352638 0.903365 
0.352778 0.352729 1.108218 
0.352580 0.352532 1.655542 
0.352475 0.352468 1.915560 
0.352562 0.352597 2.807599 
0.352441 0.352487 2.397571 
0.352524 0.352571 2.630553 
0.352417 0.352435 2.159928 
0.352628 0.352656 2.946969 
0.340289 0.365268 3.361878 
0.353208 0.353212 3.637228 
0.457395 0.201527 3.819396 
0.201536 0.457391 3.819403 
0.472617 0.161832 3.661269 
0.161840 0.472617 3.661276 
0.467922 0.174781 0.305969 
0.177437 0.466962 0.305958 
0.190921 0.460686 1.387292 
0.460744 0.190843 1.387258 
0.188021 0.461624 2.035390 
0.461601 0.188013 2.035402 
0.476032 0.148158 2.593575 
0.148108 0.476072 2.593577 
0.149761 0.475797 3.016206 
0.475770 0.149766 3.016171 
0.186269 0.463352 3.483915 
0.463326 0.186218 3.483952 
0.460813 0.190879 1.241945 
0.190953 0.460777 1.241983 
0.190881 0.460618 1.535165 
0.460702 0.190815 1.535180 
0.451609 0.212464 3.239902 
[...]
POINT_DATA 507
SCALARS u float 1
LOOKUP_TABLE default
0.009236
0.009306
0.009181
0.009142
0.009106
0.009108
0.009265
0.009308
0.009249
0.009282
0.009289
0.009265
0.009249
0.009214
0.009139
0.009101
0.009124
0.009134
0.009143
0.009202
0.009092
0.009072
0.009078
0.009129
0.009153
0.009216
0.009299
0.009301
0.009334
0.009259
0.009189
0.009137
0.009125
0.008805
0.008224
0.007466
0.006562
0.005485
0.004288
0.003008
0.001766
0.001102
0.001833
0.003040
0.004278
0.005509
0.006538
0.007434
0.008144
0.008688
0.008999
0.009062
0.008745
0.008212
0.007445
0.006537
0.005470
0.004312
0.003046
0.001831
0.001135
0.001792
0.003005
0.004264
0.005485
0.006550
0.007469
0.008250
0.008806
0.009161
0.009186
0.008872
0.008309
0.007489
0.006564
0.005499
0.004306
0.002973
0.001740
0.001117
0.001862
0.003053
0.004287
0.005503
0.006492
0.007400
0.008202
0.008710
0.009000
0.009026
0.008698
0.008152
0.007407
0.006529
0.005494
0.004327
0.003061
0.001839
0.001135
0.001769
0.002984
0.004245
0.005450
0.006564
0.007497
0.008279
0.008878
0.009209
0.007996
0.009139
0.003772
0.006855
0.002515
0.005435
0.001241
0.005448
0.003009
0.004417
0.001619
0.006237
0.008014
0.008812
0.009122
0.009030
0.008879
0.008788
0.008935
0.008996
0.005452
0.005450
0.001156
0.001158
0.004194
0.004223
0.006550
0.006590
0.008426
0.008462
0.007571
0.007644
0.008433
0.008414
0.007558
0.007451
0.006262
0.006230
0.004607
0.004600
0.003318
0.003332
0.001911
0.001864
0.003005
0.003040
0.005467
0.005475
0.008679
0.009129
0.007200
0.006910
0.002029
0.002054
0.001320
0.001275
0.009217
0.009080
0.003662
0.003691
0.009195
0.009241
0.007523
0.008810
0.008197
0.002591
0.003766
0.005290
0.006528
0.001382
0.005446
0.004321
0.003313
0.001213
0.006514
0.007780
0.009020
0.008344
0.009191
0.008994
0.009219
0.009031
0.001629
0.001620
0.007381
0.007370
0.001141
0.001145
0.004219
0.004204
0.006552
0.006553
0.008643
0.008688
0.008860
0.008762
0.008171
0.008197
0.008034
0.008046
0.007202
0.007208
0.006520
0.006544
0.004750
0.004748
0.003389
0.003384
0.002128
0.002132
0.005476
0.005489
0.009252
0.009045
0.002017
0.002853
0.002862
0.007008
0.006997
0.009243
0.009113
0.005731
0.005736
0.009071
0.008957
0.009293
0.009095
0.007847
0.008301
0.008864
0.003905
0.002572
0.006996
0.005152
0.005508
0.001259
0.001579
0.004441
0.002966
0.007357
0.006526
0.008855
0.008420
0.009057
0.009076
0.009168
0.009050
0.008823
0.009020
0.008428
0.008478
0.006531
0.006562
0.007422
0.007378
0.001146
0.001132
0.004188
0.004208
0.006904
0.006925
0.008738
0.008719
0.008167
0.008217
0.005742
0.005749
0.002967
0.003021
0.004652
0.004628
0.003379
0.003362
0.001902
0.001945
0.005712
0.005753
0.007748
0.007721
0.009101
0.009133
0.007994
0.006157
0.007858
0.007800
0.001982
0.002021
0.003651
0.003667
0.001347
0.001292
0.009089
0.009095
0.008953
0.009187
0.009238
0.008034
0.009170
0.004390
0.006998
0.005969
0.002603
0.001219
0.005482
0.003030
0.004433
0.001652
0.006214
0.007980
0.008759
0.008993
0.008998
0.008759
0.008764
0.009016
0.008977
0.004318
0.004337
0.001140
0.001159
0.004218
0.004216
0.006577
0.006554
0.008362
0.008389
0.005222
0.005196
0.003389
0.003367
0.007507
0.007633
0.008498
0.008450
0.007575
0.007576
0.006450
0.006451
0.001891
0.001866
0.003051
0.003038
0.005490
0.005490
0.008726
0.009051
0.007172
0.006876
0.002095
0.002077
0.001282
0.001272
0.007027
0.007034
0.009066
0.009053
0.003690
0.003687
0.009269
0.009225
0.009465
0.009384
0.009379
0.009402
0.009356
0.009303
0.009457
0.009377
0.009357
0.009363
0.009406
0.009264
0.009283
0.009354
0.009289
0.009401
0.009256
0.009443
0.009423
0.009448
0.009428
0.009366
0.009254
0.009227
0.009381
0.009446
0.009437
0.009342
0.009396
0.009310
0.009416
0.009319
0.009382
0.009355
0.009380
0.009272
0.009396
0.009271
0.009320
0.009407
0.009329
0.009255
0.009443
0.009426
0.009437
0.009383
0.009275
0.009336
0.009376
0.009258
0.007536
0.005777
0.009325
0.009273
0.009322
0.009038
0.009273
0.009191
0.009221
0.008951
0.009213
0.008905
0.009260
0.008996
0.009222
0.008920
0.008911
0.007652
0.005930
0.003766
0.001416
0.001266
0.003626
0.007851
0.007094
0.003024
0.003042
0.004176
0.005260
0.005256
0.006229
0.007877
0.008465
0.008490
0.007840
0.007110
0.008436
0.001876
0.001874
0.000818
0.001853
0.001798
0.001797
0.006241
0.008003
0.009294
0.009342
0.009356
0.009031
0.008888
0.001005
0.000901
0.005276
0.003082
0.007239
0.007226
0.007993
0.007276
0.008017
0.007988
0.002023
0.002028
0.007078
0.006213
0.009022
0.009085
0.008590
0.005251
0.009295
0.009322
0.009337
0.009328
0.001809
0.001806
0.007142
0.007196
0.003274
0.007335
0.006280
0.001868
0.001863
0.000799
0.003042
0.000948
0.003201
0.003227
0.003236
0.004370
0.002059
