# vtk DataFile Version 2.0
Unstructured Grid Example
ASCII
DATASET UNSTRUCTURED_GRID
POINTS 507 float
0.000525 0.500441 0.044875 
0.500848 0.000223 0.045210 
0.000589 -0.500062 0.044606 
-0.499752 0.000209 0.044418 
-0.000362 0.499799 3.955757 
0.499790 -0.000282 3.955746 
-0.000453 -0.500497 3.954988 
-0.500723 -0.000334 3.954777 
0.191938 0.462241 0.044935 
0.354268 0.353880 0.045094 
0.462620 0.191592 0.045129 
0.462632 -0.191219 0.045012 
0.354255 -0.353567 0.044937 
0.191950 -0.461879 0.044766 
-0.190824 -0.461936 0.044402 
-0.353181 -0.353417 0.044223 
-0.461652 -0.191163 0.044332 
-0.461640 0.191574 0.044379 
-0.353124 0.353921 0.044424 
-0.190862 0.462355 0.044709 
0.191032 0.461702 3.955825 
0.353217 0.353258 3.955922 
0.461677 0.191070 3.955890 
0.461686 -0.191718 3.955644 
0.353184 -0.353928 3.955529 
0.190939 -0.462398 3.955222 
-0.191868 -0.462412 3.954820 
-0.354232 -0.353914 3.954813 
-0.462675 -0.191663 3.954654 
-0.462590 0.191038 3.955015 
-0.354067 0.353336 3.955352 
-0.191794 0.461761 3.955606 
0.000343 0.500968 0.244328 
0.000161 0.501766 0.442748 
-0.000133 0.502511 0.639884 
-0.000202 0.503163 0.836138 
-0.000352 0.503724 1.031663 
-0.000359 0.504238 1.226311 
-0.000392 0.504682 1.420301 
-0.000314 0.504993 1.613736 
-0.000215 0.505214 1.806815 
-0.000074 0.505354 1.999973 
0.000106 0.505397 2.192918 
0.000270 0.505178 2.386166 
0.000340 0.504811 2.579781 
0.000326 0.504625 2.773638 
0.000219 0.504117 2.968501 
0.000328 0.503473 3.164045 
0.000134 0.502355 3.360496 
-0.000055 0.501797 3.557822 
-0.000207 0.500762 3.756280 
0.000354 -0.500741 0.244027 
0.000152 -0.501699 0.442460 
-0.000082 -0.502459 0.639824 
-0.000306 -0.503229 0.836029 
-0.000332 -0.503928 1.031518 
-0.000435 -0.504506 1.226190 
-0.000368 -0.505042 1.420335 
-0.000308 -0.505311 1.613810 
-0.000192 -0.505462 1.807022 
-0.000021 -0.505512 2.000104 
0.000116 -0.505330 2.193114 
0.000267 -0.505027 2.386296 
0.000343 -0.504585 2.579797 
0.000362 -0.504244 2.773691 
0.000355 -0.503731 2.968394 
0.000247 -0.503056 3.163835 
0.000059 -0.502364 3.359985 
-0.000028 -0.501737 3.557248 
-0.000245 -0.501058 3.755499 
0.501258 0.000133 0.244616 
0.501861 0.000123 0.443069 
0.502605 0.000023 0.640288 
0.502893 -0.000012 0.836272 
0.503634 -0.000127 1.031687 
0.504101 -0.000105 1.226402 
0.504506 -0.000220 1.420429 
0.504787 -0.000171 1.613630 
0.505119 -0.000123 1.806726 
0.505425 -0.000058 1.999814 
0.505493 0.000019 2.192810 
0.505303 0.000125 2.386144 
0.504990 0.000172 2.579778 
0.504741 0.000138 2.773686 
0.504174 0.000164 2.968733 
0.503272 0.000220 3.164194 
0.502491 0.000159 3.360225 
0.501768 -0.000043 3.557715 
0.500726 -0.000197 3.756273 
-0.500540 0.000173 0.243855 
-0.501610 0.000094 0.442234 
-0.502443 0.000042 0.639534 
-0.503286 -0.000087 0.835842 
-0.504125 -0.000123 1.031456 
-0.504753 -0.000199 1.226269 
-0.505181 -0.000223 1.420375 
-0.505396 -0.000195 1.613859 
-0.505471 -0.000123 1.807065 
-0.505509 -0.000072 2.000197 
-0.505269 -0.000006 2.193206 
-0.504920 0.000050 2.386363 
-0.504478 0.000148 2.579868 
-0.504182 0.000149 2.773849 
-0.503639 0.000281 2.968315 
-0.502945 0.000177 3.163693 
-0.502176 0.000156 3.359833 
-0.501914 0.000062 3.556902 
-0.501286 -0.000164 3.755270 
0.354364 -0.356494 0.719551 
0.353510 -0.355074 0.253108 
0.356647 -0.357205 1.495469 
0.355443 -0.356385 0.966679 
0.357005 -0.357426 1.690313 
0.356442 -0.356989 1.237134 
0.357281 -0.357477 1.923687 
0.356884 -0.356404 2.773892 
0.357462 -0.357080 2.379959 
0.357166 -0.356628 2.603543 
0.357432 -0.357344 2.153908 
0.356752 -0.356301 2.908302 
0.367886 -0.342442 3.311813 
0.354693 -0.354729 3.582113 
0.201725 -0.458584 3.762415 
0.458165 -0.202091 3.762861 
0.162306 -0.474439 3.605817 
0.474501 -0.162514 3.606268 
0.175689 -0.469681 0.362048 
0.468950 -0.177996 0.362276 
0.192686 -0.466269 1.228879 
0.465715 -0.193220 1.228921 
0.190637 -0.468144 2.035661 
0.468088 -0.190691 2.035499 
0.150394 -0.481762 2.567985 
0.482251 -0.149854 2.567915 
0.480911 -0.151152 2.975458 
0.151662 -0.480442 2.975225 
0.466012 -0.187204 3.431268 
0.187336 -0.465895 3.431092 
0.214462 -0.455042 3.192709 
0.475090 -0.165187 3.215928 
0.463347 -0.194501 0.586619 
0.192200 -0.464173 0.586924 
0.475131 -0.164567 0.835670 
0.163425 -0.475809 0.835185 
0.467120 -0.188445 1.087950 
0.187681 -0.467727 1.087766 
0.192785 -0.466538 1.370471 
0.466016 -0.193341 1.370494 
0.466306 -0.193515 1.565907 
0.192953 -0.466760 1.565911 
0.178505 -0.472832 1.790007 
0.472485 -0.178818 1.789885 
0.185112 -0.469991 2.382397 
0.470351 -0.184695 2.382280 
0.193318 -0.465759 2.773275 
0.466313 -0.192847 2.773292 
0.350863 -0.359141 0.499252 
0.353740 -0.354247 3.822184 
0.379528 -0.330776 3.109549 
0.282923 -0.416678 3.046389 
0.227397 -0.451301 2.228962 
0.451475 -0.227220 2.228870 
0.091837 -0.497037 1.906216 
0.496849 -0.092018 1.906048 
0.100068 -0.490662 3.856905 
0.490109 -0.100637 3.857565 
0.272091 -0.425381 2.485243 
0.425848 -0.271615 2.485135 
0.189090 -0.463509 0.165901 
0.463803 -0.189383 0.166107 
-0.355830 -0.355661 0.806977 
-0.365375 -0.343079 0.373404 
-0.355318 -0.355256 0.628844 
-0.357511 -0.357412 1.691222 
-0.357367 -0.357231 1.505941 
-0.357080 -0.356858 1.258302 
-0.356556 -0.356329 1.031355 
-0.357470 -0.357468 1.901745 
-0.356406 -0.356579 2.773869 
-0.356627 -0.356787 2.589902 
-0.356886 -0.357041 2.435767 
-0.357347 -0.357411 2.069262 
-0.356023 -0.356170 2.958136 
-0.355470 -0.355483 3.227227 
-0.365813 -0.343296 3.625210 
-0.355105 -0.355172 3.377286 
-0.471513 -0.170446 3.727807 
-0.470849 -0.170139 0.270619 
-0.253399 -0.432419 3.766006 
-0.258291 -0.428698 0.226331 
-0.209798 -0.459728 2.167388 
-0.459647 -0.209905 2.167423 
-0.149914 -0.480425 0.845584 
-0.480540 -0.149674 0.845530 
-0.167267 -0.477039 1.989032 
-0.477041 -0.167302 1.989088 
-0.177776 -0.472110 2.574383 
-0.471981 -0.177961 2.574442 
-0.465281 -0.192655 2.964719 
-0.192510 -0.465396 2.964724 
-0.462205 -0.194847 0.447288 
-0.214310 -0.453532 0.442807 
-0.462508 -0.194980 3.547990 
-0.184498 -0.466722 3.526933 
-0.464047 -0.192637 0.635541 
-0.192718 -0.464020 0.635665 
-0.464975 -0.190234 3.300557 
-0.188503 -0.465827 3.296923 
-0.191753 -0.465248 3.096287 
-0.465029 -0.192123 3.096850 
-0.469147 -0.184478 1.032460 
-0.184714 -0.468958 1.032585 
-0.459990 -0.208710 1.351689 
-0.208904 -0.459826 1.351693 
-0.466927 -0.193522 1.566279 
-0.193652 -0.466809 1.566271 
-0.189241 -0.468732 1.761601 
-0.468778 -0.189168 1.761615 
-0.465877 -0.192933 2.773734 
-0.192728 -0.466016 2.773679 
-0.388129 -0.317092 3.802179 
-0.387240 -0.316811 0.196484 
-0.357174 -0.357297 2.238157 
-0.476537 -0.167015 2.367796 
-0.166826 -0.476653 2.367769 
-0.271266 -0.424305 0.927474 
-0.424487 -0.271058 0.927418 
-0.114229 -0.487722 3.822950 
-0.116327 -0.486676 0.173552 
-0.448933 -0.230402 1.180099 
-0.230624 -0.448661 1.180147 
-0.112047 -0.488643 3.684407 
-0.119602 -0.486550 0.307439 
-0.492515 -0.092223 3.847970 
-0.491673 -0.091819 0.150926 
-0.355667 0.355493 0.741727 
-0.355178 0.355208 0.605258 
-0.342943 0.365683 0.369556 
-0.357402 0.356849 1.483331 
-0.357519 0.357079 1.687220 
-0.356353 0.355991 0.945296 
-0.357166 0.356572 1.282619 
-0.356426 0.356902 2.773600 
-0.357478 0.357279 1.923098 
-0.357307 0.357348 2.153942 
-0.356512 0.357022 2.602949 
-0.356939 0.357241 2.380976 
-0.355691 0.356104 3.133158 
-0.356023 0.356631 2.956296 
-0.345006 0.364106 3.602838 
-0.352657 0.357674 3.426861 
-0.194960 0.461399 3.766557 
-0.169969 0.471303 0.270317 
-0.420817 0.271647 3.801279 
-0.428914 0.258112 0.225685 
-0.155364 0.476795 3.614486 
-0.471298 0.171251 3.662207 
-0.208531 0.456827 3.431416 
-0.453418 0.216048 3.431668 
-0.449238 0.228575 1.033082 
-0.229074 0.448803 1.033256 
-0.185065 0.467999 0.850121 
-0.468217 0.184742 0.849902 
-0.468138 0.190597 2.035442 
-0.190666 0.468011 2.035332 
-0.481668 0.150173 2.567819 
-0.149670 0.482037 2.567770 
-0.462873 0.198140 3.040590 
-0.197350 0.463535 3.040506 
-0.194778 0.462335 0.448093 
-0.454465 0.212281 0.438462 
-0.469689 0.178541 0.637144 
-0.178628 0.469697 0.637385 
-0.463697 0.198825 1.181525 
-0.199405 0.463153 1.181603 
-0.469853 0.184852 2.382590 
-0.184574 0.470218 2.382403 
-0.466712 0.192960 1.367409 
-0.193531 0.466108 1.367362 
-0.466889 0.193067 1.563086 
-0.193611 0.466431 1.563065 
-0.178920 0.472552 1.788916 
-0.472870 0.178541 1.789055 
-0.456528 0.213797 2.811610 
-0.213296 0.457124 2.811459 
-0.464568 0.192349 3.228921 
-0.189986 0.465690 3.228982 
-0.316594 0.387797 0.195658 
-0.317050 0.387562 3.814527 
-0.353798 0.356908 3.290496 
-0.356813 0.356250 1.109744 
-0.092578 0.494208 0.741015 
-0.494261 0.092377 0.740731 
-0.451198 0.227244 2.229220 
-0.227158 0.451381 2.229077 
-0.425269 0.271895 2.485153 
-0.271439 0.425664 2.485094 
-0.497077 0.091827 1.906018 
-0.092061 0.496850 1.905810 
-0.098771 0.490549 3.858476 
-0.486515 0.116659 0.173054 
-0.486527 0.119443 0.306090 
-0.091578 0.492242 0.151192 
-0.483979 0.129283 3.826751 
0.356348 0.354448 0.716848 
0.355599 0.353294 0.253251 
0.356612 0.356883 1.406264 
0.355989 0.355753 0.947024 
0.356227 0.356397 1.145293 
0.356910 0.357075 1.670599 
0.357272 0.357299 1.919035 
0.356972 0.356851 2.773788 
0.357389 0.357231 2.379859 
0.357104 0.356943 2.603501 
0.357473 0.357412 2.152384 
0.356746 0.356649 2.908448 
0.342592 0.367886 3.311985 
0.354745 0.354731 3.582369 
0.458164 0.201733 3.763034 
0.201700 0.458177 3.763009 
0.474511 0.162396 3.606405 
0.162367 0.474510 3.606383 
0.470016 0.175548 0.362437 
0.178396 0.468800 0.362183 
0.192792 0.466263 1.413710 
0.466065 0.193062 1.413826 
0.190588 0.468041 2.033587 
0.468122 0.190618 2.033546 
0.482135 0.150184 2.567932 
0.150356 0.481996 2.567925 
0.151494 0.480805 2.975325 
0.480898 0.151477 2.975447 
0.187268 0.465872 3.431577 
0.465960 0.187446 3.431452 
0.465825 0.192937 1.274224 
0.192684 0.465951 1.274091 
0.192932 0.466499 1.555469 
0.466211 0.193158 1.555416 
0.455175 0.214386 3.193024 
0.165592 0.475187 3.216002 
[...]
POINT_DATA 507
SCALARS u float 1
LOOKUP_TABLE default
0.009236
0.009306
0.009181
0.009142
0.009106
0.009108
0.009265
0.009308
0.009249
0.009282
0.009289
0.009265
0.009249
0.009214
0.009139
0.009101
0.009124
0.009134
0.009143
0.009202
0.009092
0.009072
0.009078
0.009129
0.009153
0.009216
0.009299
0.009301
0.009334
0.009259
0.009189
0.009137
0.009125
0.008805
0.008224
0.007466
0.006562
0.005485
0.004288
0.003008
0.001766
0.001102
0.001833
0.003040
0.004278
0.005509
0.006538
0.007434
0.008144
0.008688
0.008999
0.009062
0.008745
0.008212
0.007445
0.006537
0.005470
0.004312
0.003046
0.001831
0.001135
0.001792
0.003005
0.004264
0.005485
0.006550
0.007469
0.008250
0.008806
0.009161
0.009186
0.008872
0.008309
0.007489
0.006564
0.005499
0.004306
0.002973
0.001740
0.001117
0.001862
0.003053
0.004287
0.005503
0.006492
0.007400
0.008202
0.008710
0.009000
0.009026
0.008698
0.008152
0.007407
0.006529
0.005494
0.004327
0.003061
0.001839
0.001135
0.001769
0.002984
0.004245
0.005450
0.006564
0.007497
0.008279
0.008878
0.009209
0.007996
0.009139
0.003772
0.006855
0.002515
0.005435
0.001241
0.005448
0.003009
0.004417
0.001619
0.006237
0.008014
0.008812
0.009122
0.009030
0.008879
0.008788
0.008935
0.008996
0.005452
0.005450
0.001156
0.001158
0.004194
0.004223
0.006550
0.006590
0.008426
0.008462
0.007571
0.007644
0.008433
0.008414
0.007558
0.007451
0.006262
0.006230
0.004607
0.004600
0.003318
0.003332
0.001911
0.001864
0.003005
0.003040
0.005467
0.005475
0.008679
0.009129
0.007200
0.006910
0.002029
0.002054
0.001320
0.001275
0.009217
0.009080
0.003662
0.003691
0.009195
0.009241
0.007523
0.008810
0.008197
0.002591
0.003766
0.005290
0.006528
0.001382
0.005446
0.004321
0.003313
0.001213
0.006514
0.007780
0.009020
0.008344
0.009191
0.008994
0.009219
0.009031
0.001629
0.001620
0.007381
0.007370
0.001141
0.001145
0.004219
0.004204
0.006552
0.006553
0.008643
0.008688
0.008860
0.008762
0.008171
0.008197
0.008034
0.008046
0.007202
0.007208
0.006520
0.006544
0.004750
0.004748
0.003389
0.003384
0.002128
0.002132
0.005476
0.005489
0.009252
0.009045
0.002017
0.002853
0.002862
0.007008
0.006997
0.009243
0.009113
0.005731
0.005736
0.009071
0.008957
0.009293
0.009095
0.007847
0.008301
0.008864
0.003905
0.002572
0.006996
0.005152
0.005508
0.001259
0.001579
0.004441
0.002966
0.007357
0.006526
0.008855
0.008420
0.009057
0.009076
0.009168
0.009050
0.008823
0.009020
0.008428
0.008478
0.006531
0.006562
0.007422
0.007378
0.001146
0.001132
0.004188
0.004208
0.006904
0.006925
0.008738
0.008719
0.008167
0.008217
0.005742
0.005749
0.002967
0.003021
0.004652
0.004628
0.003379
0.003362
0.001902
0.001945
0.005712
0.005753
0.007748
0.007721
0.009101
0.009133
0.007994
0.006157
0.007858
0.007800
0.001982
0.002021
0.003651
0.003667
0.001347
0.001292
0.009089
0.009095
0.008953
0.009187
0.009238
0.008034
0.009170
0.004390
0.006998
0.005969
0.002603
0.001219
0.005482
0.003030
0.004433
0.001652
0.006214
0.007980
0.008759
0.008993
0.008998
0.008759
0.008764
0.009016
0.008977
0.004318
0.004337
0.001140
0.001159
0.004218
0.004216
0.006577
0.006554
0.008362
0.008389
0.005222
0.005196
0.003389
0.003367
0.007507
0.007633
0.008498
0.008450
0.007575
0.007576
0.006450
0.006451
0.001891
0.001866
0.003051
0.003038
0.005490
0.005490
0.008726
0.009051
0.007172
0.006876
0.002095
0.002077
0.001282
0.001272
0.007027
0.007034
0.009066
0.009053
0.003690
0.003687
0.009269
0.009225
0.009465
0.009384
0.009379
0.009402
0.009356
0.009303
0.009457
0.009377
0.009357
0.009363
0.009406
0.009264
0.009283
0.009354
0.009289
0.009401
0.009256
0.009443
0.009423
0.009448
0.009428
0.009366
0.009254
0.009227
0.009381
0.009446
0.009437
0.009342
0.009396
0.009310
0.009416
0.009319
0.009382
0.009355
0.009380
0.009272
0.009396
0.009271
0.009320
0.009407
0.009329
0.009255
0.009443
0.009426
0.009437
0.009383
0.009275
0.009336
0.009376
0.009258
0.007536
0.005777
0.009325
0.009273
0.009322
0.009038
0.009273
0.009191
0.009221
0.008951
0.009213
0.008905
0.009260
0.008996
0.009222
0.008920
0.008911
0.007652
0.005930
0.003766
0.001416
0.001266
0.003626
0.007851
0.007094
0.003024
0.003042
0.004176
0.005260
0.005256
0.006229
0.007877
0.008465
0.008490
0.007840
0.007110
0.008436
0.001876
0.001874
0.000818
0.001853
0.001798
0.001797
0.006241
0.008003
0.009294
0.009342
0.009356
0.009031
0.008888
0.001005
0.000901
0.005276
0.003082
0.007239
0.007226
0.007993
0.007276
0.008017
0.007988
0.002023
0.002028
0.007078
0.006213
0.009022
0.009085
0.008590
0.005251
0.009295
0.009322
0.009337
0.009328
0.001809
0.001806
0.007142
0.007196
0.003274
0.007335
0.006280
0.001868
0.001863
0.000799
0.003042
0.000948
0.003201
0.003227
0.003236
0.004370
0.002059
