# vtk DataFile Version 2.0
Unstructured Grid Example
ASCII
DATASET UNSTRUCTURED_GRID
POINTS 1221 float
0.007428 -0.002659 -0.015067 
1.001796 -0.001509 0.010972 
1.000484 1.002062 0.009778 
0.001906 0.999971 -0.006622 
-0.004128 -0.000335 0.034942 
0.994935 -0.001130 0.060936 
0.995974 1.001143 0.059750 
0.000340 1.003016 0.043366 
-0.004401 0.049755 0.033329 
-0.004362 0.099323 0.032548 
-0.004204 0.148545 0.033711 
-0.003276 0.198957 0.037159 
-0.002352 0.248325 0.041203 
-0.001740 0.298702 0.045283 
-0.001535 0.349423 0.047796 
-0.001340 0.400411 0.048195 
-0.001578 0.451289 0.045989 
-0.001436 0.501283 0.042293 
-0.001993 0.550862 0.038551 
-0.002510 0.600105 0.036390 
-0.002763 0.648964 0.037198 
-0.002497 0.698196 0.040652 
-0.001965 0.748656 0.045523 
-0.001717 0.799587 0.049083 
-0.000884 0.851141 0.051292 
-0.000475 0.902176 0.049773 
-0.000132 0.952917 0.046713 
0.005726 0.047692 -0.016466 
0.005322 0.098433 -0.017295 
0.003788 0.149466 -0.016353 
0.002366 0.200526 -0.012612 
0.000973 0.250734 -0.008624 
0.000860 0.301155 -0.004958 
0.001019 0.350736 -0.002128 
0.001366 0.399909 -0.001807 
0.001856 0.449299 -0.003981 
0.002212 0.498737 -0.007707 
0.002544 0.549141 -0.011365 
0.002878 0.599622 -0.013543 
0.002401 0.650609 -0.012871 
0.001967 0.701345 -0.009219 
0.001177 0.751613 -0.004607 
0.000336 0.801053 -0.000500 
0.000023 0.850647 0.001130 
0.000513 0.900056 -0.000130 
0.001264 0.949938 -0.003239 
0.001646 -0.001462 0.010101 
0.001107 1.001484 0.018442 
0.046333 0.000654 0.047156 
0.096998 0.001228 0.059115 
0.149267 0.002028 0.065134 
0.201791 0.001409 0.064550 
0.252895 0.001637 0.059367 
0.303118 0.001206 0.051518 
0.351239 0.000213 0.043300 
0.399897 -0.000429 0.039943 
0.448053 -0.000719 0.041366 
0.497004 -0.000739 0.047237 
0.547322 -0.000268 0.054724 
0.598832 0.000190 0.059925 
0.651173 0.000837 0.059627 
0.702431 0.000766 0.054235 
0.752233 0.000519 0.047007 
0.799951 0.000293 0.042217 
0.847885 -0.000098 0.042173 
0.896308 -0.000267 0.046637 
0.945251 -0.000763 0.053687 
0.057248 -0.001884 -0.002543 
0.105602 -0.001891 0.008779 
0.151541 -0.001073 0.014952 
0.198975 -0.000308 0.014405 
0.247989 -0.000094 0.009314 
0.296406 -0.000343 0.001450 
0.347409 -0.000007 -0.006526 
0.399490 0.000005 -0.010183 
0.451498 -0.000078 -0.008560 
0.502675 -0.000110 -0.002769 
0.552309 -0.000154 0.004707 
0.601002 -0.000130 0.009618 
0.648816 -0.000265 0.009806 
0.697419 0.000138 0.004168 
0.747340 0.000896 -0.003458 
0.798805 0.000860 -0.007564 
0.850461 0.000569 -0.007865 
0.901343 -0.000011 -0.003439 
0.951972 -0.000900 0.003533 
0.998387 -0.001317 0.035841 
0.995877 0.048803 0.060055 
0.997150 0.099001 0.058957 
0.997550 0.149101 0.058933 
0.997520 0.199377 0.059740 
0.997352 0.249662 0.060412 
0.997358 0.299970 0.061262 
0.997049 0.350222 0.061658 
0.996519 0.400510 0.061682 
0.996508 0.450374 0.060961 
0.996921 0.500364 0.059487 
0.997214 0.550204 0.057449 
0.998292 0.600318 0.054942 
0.999299 0.650102 0.052041 
0.999926 0.699835 0.051140 
0.999685 0.749776 0.051718 
0.999593 0.800145 0.053076 
0.998975 0.850601 0.054827 
0.998072 0.900764 0.056489 
0.996902 0.951084 0.058346 
1.001941 0.048552 0.009844 
1.002539 0.098743 0.009070 
1.002667 0.149247 0.009000 
1.003501 0.199754 0.009828 
1.003801 0.250226 0.010552 
1.003566 0.300527 0.011237 
1.002937 0.350547 0.011561 
1.002694 0.400287 0.011619 
1.002080 0.449922 0.010909 
1.001461 0.499418 0.009406 
1.001336 0.549253 0.007382 
1.001134 0.598886 0.004767 
1.000567 0.649033 0.002206 
1.000800 0.699672 0.001193 
1.001391 0.750369 0.001834 
1.001550 0.801007 0.003230 
1.001525 0.851516 0.004869 
1.001260 0.901770 0.006567 
1.001032 0.952052 0.008311 
0.998232 1.001590 0.034647 
0.946291 1.000627 0.054746 
0.896927 1.000360 0.049544 
0.848192 1.000038 0.046263 
0.799257 0.999777 0.044566 
0.750435 0.999745 0.044983 
0.700828 0.999757 0.047151 
0.651086 0.999999 0.050138 
0.601168 1.000079 0.052580 
0.550582 1.000345 0.053672 
0.499757 1.000322 0.053068 
0.449229 1.000144 0.051057 
0.399086 1.000139 0.048507 
0.349599 1.000020 0.046767 
0.300465 0.999855 0.046691 
0.250651 1.000044 0.047619 
0.200629 1.000212 0.048289 
0.150640 1.000644 0.048238 
0.100504 1.001429 0.047195 
0.050319 1.002368 0.045308 
0.950449 1.001201 0.004555 
0.900694 1.000318 -0.000587 
0.849898 0.999736 -0.003901 
0.799877 0.999317 -0.005509 
0.749439 0.999163 -0.005113 
0.699277 0.999371 -0.002946 
0.649440 0.999618 0.000112 
0.599956 1.000143 0.002548 
0.550430 1.000490 0.003688 
0.500856 1.000700 0.003137 
0.450745 1.000638 0.001146 
0.400561 1.000053 -0.001461 
0.350198 0.999566 -0.003305 
0.299705 0.999033 -0.003360 
0.249774 0.998659 -0.002429 
0.200405 0.998760 -0.001776 
0.150908 0.999039 -0.001787 
0.101516 0.999281 -0.002805 
0.051787 0.999630 -0.004677 
0.025576 1.000918 0.013193 
0.020594 1.001905 0.029540 
0.974454 1.001359 0.026199 
0.977578 1.001149 0.043190 
0.481935 1.000515 0.027505 
0.774763 0.999490 0.019395 
0.675462 0.999677 0.023612 
0.526198 1.000493 0.028647 
0.725099 0.999493 0.020801 
0.625559 0.999911 0.026556 
0.076049 1.000682 0.021277 
0.225382 0.999344 0.023022 
0.575628 1.000256 0.028371 
0.175644 0.999626 0.023345 
0.125903 1.000062 0.022842 
0.874042 1.000054 0.022431 
0.824461 0.999711 0.020081 
0.374906 0.999888 0.022514 
0.917095 1.000600 0.026414 
0.275162 0.999422 0.022056 
0.325029 0.999583 0.021448 
0.424959 1.000282 0.024744 
0.498742 0.500323 0.048106 
0.293460 0.295064 0.046579 
0.708034 0.704951 0.052482 
0.710168 0.290849 0.050971 
0.291524 0.709104 0.049314 
0.500942 0.781819 0.050669 
0.784372 0.497611 0.043910 
0.497924 0.222454 0.051400 
0.225031 0.502901 0.057345 
0.167166 0.171499 0.056505 
0.830954 0.170278 0.042597 
0.830469 0.830695 0.047184 
0.168372 0.830250 0.054757 
0.562694 0.641001 0.052101 
0.435685 0.358988 0.045204 
0.643034 0.437862 0.057098 
0.354722 0.567034 0.044814 
0.640414 0.846985 0.052745 
0.360975 0.153893 0.041291 
0.150634 0.360385 0.056943 
0.845147 0.360085 0.041364 
0.845970 0.641124 0.047347 
0.641763 0.153639 0.057167 
0.358667 0.846247 0.047293 
0.153195 0.634835 0.053676 
0.678265 0.581444 0.053432 
0.560075 0.330647 0.058469 
0.438524 0.669555 0.044342 
0.322643 0.419846 0.047185 
0.533846 0.882430 0.052949 
0.464074 0.117390 0.044695 
0.879780 0.465564 0.046342 
0.118899 0.466030 0.055380 
0.744676 0.896178 0.046722 
0.106601 0.257772 0.051662 
0.260075 0.099051 0.053704 
0.895517 0.255727 0.045967 
0.890055 0.736976 0.048262 
0.737526 0.111257 0.048290 
0.263322 0.889302 0.050047 
0.108531 0.738099 0.053414 
0.601111 0.740282 0.054230 
0.398275 0.259605 0.041772 
0.746619 0.404468 0.045699 
0.252686 0.597939 0.054180 
0.597429 0.521174 0.055151 
0.399230 0.474799 0.042907 
0.612362 0.253668 0.059645 
0.387627 0.745732 0.045244 
0.095575 0.095440 0.052593 
0.901025 0.094720 0.047402 
0.904574 0.902814 0.049594 
0.098329 0.906295 0.051757 
0.436675 0.903259 0.049787 
0.901434 0.563076 0.048541 
0.561969 0.096570 0.056306 
0.095150 0.563602 0.049182 
0.259576 0.203070 0.049894 
0.742753 0.797088 0.049225 
0.798005 0.258626 0.041840 
0.208827 0.745150 0.054153 
0.197031 0.279399 0.054444 
0.798888 0.715821 0.048574 
0.716001 0.207174 0.050454 
0.285657 0.793174 0.049789 
0.500725 0.411913 0.050751 
0.496427 0.588609 0.047012 
0.241332 0.365187 0.053281 
0.759360 0.634265 0.049625 
0.690189 0.500689 0.052455 
0.647060 0.345363 0.057893 
0.310423 0.504757 0.049363 
0.355159 0.654681 0.044539 
0.077442 0.183047 0.046773 
0.176300 0.085777 0.061144 
0.817208 0.918832 0.045742 
0.917200 0.182160 0.049024 
0.917158 0.821255 0.049722 
0.819966 0.083449 0.042707 
0.079303 0.817684 0.053924 
0.185378 0.914338 0.051572 
0.651579 0.655516 0.054275 
0.348818 0.344140 0.043481 
0.513168 0.696724 0.049394 
0.484794 0.303211 0.050857 
0.610391 0.917201 0.052700 
0.389354 0.083003 0.040737 
0.077264 0.394564 0.053703 
0.914918 0.389940 0.050292 
0.925308 0.660432 0.049184 
0.661745 0.075724 0.057583 
0.340191 0.924892 0.047350 
0.072252 0.660602 0.046341 
0.431008 0.821967 0.048397 
0.820745 0.565506 0.045472 
0.568088 0.177508 0.057339 
0.178243 0.567408 0.056439 
0.190699 0.431257 0.058434 
0.573430 0.818564 0.053649 
0.426121 0.178463 0.042222 
0.820832 0.426772 0.041075 
0.564182 0.457938 0.055474 
0.434865 0.542243 0.043058 
0.775713 0.331423 0.042512 
0.225537 0.668090 0.053869 
0.668099 0.781102 0.053008 
0.334389 0.218568 0.042618 
0.678100 0.930210 0.049198 
0.067140 0.317351 0.051111 
0.324095 0.070715 0.045661 
0.927874 0.322712 0.051466 
0.745623 0.559482 0.048774 
0.447183 0.736421 0.046590 
0.551111 0.262936 0.057789 
0.613336 0.595098 0.054251 
0.385838 0.405662 0.043599 
0.260074 0.442793 0.053894 
0.584389 0.393036 0.058583 
0.414064 0.607240 0.042672 
0.450205 0.427806 0.045544 
0.547541 0.572494 0.051211 
0.484641 0.935003 0.052027 
0.931873 0.515072 0.052266 
0.512834 0.064800 0.050007 
0.063619 0.515714 0.047642 
0.500236 0.839012 0.051525 
0.836312 0.506969 0.043565 
0.499151 0.151611 0.049892 
0.152810 0.501634 0.056919 
0.697656 0.842894 0.050263 
0.304926 0.157271 0.045621 
0.842078 0.302827 0.041193 
0.148466 0.701864 0.054136 
0.158442 0.231375 0.054915 
0.842401 0.772998 0.047717 
0.773838 0.158818 0.044684 
0.226847 0.841714 0.052590 
0.671381 0.238323 0.055369 
0.329948 0.761581 0.047109 
0.698608 0.355754 0.052234 
0.304405 0.644259 0.048779 
0.938338 0.606386 0.050658 
0.605544 0.060360 0.059596 
0.393410 0.939764 0.048283 
0.058302 0.606956 0.043453 
0.701584 0.433383 0.051647 
0.305844 0.558762 0.049822 
0.050728 0.054624 0.045296 
0.941991 0.053601 0.052834 
0.943346 0.945987 0.053512 
0.054392 0.947970 0.048678 
0.772538 0.945527 0.045079 
0.053957 0.231581 0.045373 
0.228239 0.055755 0.059880 
0.945147 0.771567 0.050088 
0.772726 0.055528 0.044565 
0.229441 0.944811 0.049654 
0.944673 0.226815 0.052696 
0.053029 0.770934 0.051194 
0.220760 0.161115 0.055408 
0.775515 0.847051 0.046973 
0.848351 0.225036 0.042304 
0.154782 0.774654 0.055406 
0.553473 0.948175 0.053465 
[...]
POINT_DATA 1221
SCALARS u float 1
LOOKUP_TABLE default
0.175007
0.115457
0.102949
0.070907
0.160701
0.124564
0.109179
0.075073
0.177443
0.185242
0.173756
0.136786
0.095277
0.053435
0.028267
0.023518
0.046291
0.081744
0.119913
0.142410
0.135185
0.101277
0.052171
0.020471
0.019935
0.023039
0.045239
0.180955
0.186898
0.172816
0.132149
0.089622
0.053131
0.025433
0.023328
0.045766
0.083528
0.120168
0.142519
0.134876
0.097984
0.051664
0.012482
0.013399
0.005475
0.035787
0.154981
0.070117
0.048222
0.099558
0.157307
0.151545
0.102284
0.037778
0.070144
0.103592
0.091375
0.042618
0.055944
0.102848
0.100171
0.050862
0.038800
0.080145
0.083432
0.051464
0.062362
0.081384
0.108910
0.155063
0.148633
0.098056
0.040039
0.072251
0.104916
0.089430
0.039636
0.053973
0.099518
0.101670
0.050463
0.045826
0.079292
0.081280
0.037991
0.042654
0.113598
0.112504
0.097268
0.095767
0.103621
0.110601
0.119037
0.123763
0.125544
0.118439
0.102706
0.081863
0.053908
0.022232
0.011875
0.018119
0.031962
0.051151
0.070100
0.092278
0.104311
0.097775
0.096897
0.107384
0.115435
0.121437
0.122869
0.122771
0.114276
0.098132
0.077576
0.051705
0.025467
0.015160
0.023988
0.038294
0.054773
0.071177
0.088726
0.102235
0.062320
0.032184
0.042719
0.056483
0.051881
0.030637
0.011267
0.029159
0.038426
0.031844
0.013542
0.018067
0.033521
0.034412
0.025407
0.018883
0.020399
0.032810
0.054180
0.048692
0.009903
0.040248
0.057133
0.053625
0.031878
0.007070
0.026262
0.038538
0.034225
0.015521
0.016116
0.034361
0.036103
0.028646
0.022676
0.022872
0.033637
0.051661
0.060785
0.064100
0.077573
0.085269
0.026459
0.057961
0.015416
0.038161
0.043536
0.017040
0.040415
0.021804
0.035235
0.018675
0.024083
0.028222
0.051007
0.025627
0.020304
0.030913
0.036807
0.003940
0.023631
0.037134
0.025855
0.015079
0.009476
0.009141
0.062805
0.023172
0.076014
0.068345
0.076421
0.029182
0.049393
0.024052
0.049988
0.073339
0.055137
0.028974
0.089658
0.071793
0.090415
0.027592
0.073793
0.027963
0.038321
0.035320
0.087389
0.058915
0.030839
0.030667
0.056094
0.045651
0.056485
0.034189
0.022528
0.042862
0.042916
0.018402
0.020495
0.005065
0.039634
0.043622
0.085088
0.046501
0.044269
0.053981
0.074048
0.099478
0.049195
0.034496
0.030258
0.008826
0.020310
0.003330
0.022670
0.066133
0.020561
0.012205
0.012457
0.084498
0.042908
0.046741
0.016568
0.015827
0.004341
0.015896
0.032006
0.034210
0.004599
0.026082
0.082002
0.018276
0.057373
0.044093
0.115950
0.044116
0.022659
0.004008
0.076079
0.043386
0.016234
0.044116
0.067641
0.011013
0.015190
0.027854
0.095333
0.039836
0.022862
0.009138
0.079395
0.027688
0.044763
0.016720
0.046820
0.075808
0.067834
0.086872
0.037741
0.080419
0.092227
0.058000
0.071605
0.078474
0.039852
0.031455
0.076803
0.011453
0.019291
0.048059
0.029511
0.012688
0.035733
0.080736
0.044558
0.065937
0.043132
0.088992
0.075587
0.046126
0.016967
0.021156
0.037231
0.025102
0.030286
0.016533
0.068405
0.013885
0.071734
0.010440
0.046492
0.090665
0.043608
0.051981
0.024013
0.055683
0.026775
0.057127
0.029839
0.028936
0.018390
0.014869
0.099251
0.018112
0.070573
0.021782
0.020263
0.061761
0.047342
0.044828
0.025174
0.050907
0.051242
0.103782
0.001151
0.057493
0.006083
0.033792
0.024480
0.057057
0.031555
0.079764
0.056328
0.035972
0.055946
0.083825
0.015919
0.057477
0.023337
0.030227
0.013558
0.024334
0.036847
0.012856
0.020382
0.081039
0.040101
0.074834
0.025732
0.026586
0.043039
0.078082
0.083376
0.113404
0.029701
0.030881
0.067345
0.025239
0.029243
0.008073
0.061065
0.045342
0.068832
0.056458
0.101853
0.064948
0.048987
0.036239
0.093137
0.065290
0.010205
0.008787
0.034571
0.014392
0.020085
0.005573
0.041657
0.094508
0.100486
0.005317
0.028941
0.042774
0.021425
0.073764
0.065148
0.016872
0.033084
0.031975
0.088927
0.050403
0.059280
0.050147
0.024096
0.072193
0.043557
0.070016
0.044238
0.022394
0.022228
0.087360
0.019690
0.026968
0.034630
0.062962
0.055309
0.039293
0.056223
0.018600
0.057594
0.026710
0.037718
0.008945
0.066912
0.054990
0.006957
0.043429
0.063437
0.076057
0.019336
0.071393
0.030846
0.017104
0.037815
0.013196
0.033078
0.050335
0.028153
0.084090
0.021879
0.046487
0.073634
0.033493
0.034105
0.033597
0.047809
0.037360
0.057509
0.051292
0.058216
0.065557
0.047483
0.083842
0.013310
0.017287
0.088965
0.065648
0.011942
0.015976
0.011320
0.030395
0.029540
0.041515
0.041864
0.079312
0.024821
0.051400
0.056068
0.025594
0.104072
0.143057
0.052537
0.049349
0.020125
0.085147
0.027891
0.004465
0.026615
0.047468
0.023433
0.020754
0.018590
0.011180
0.032227
0.101094
0.073472
0.045744
0.058656
0.032210
0.012092
0.012504
0.036745
0.065425
0.036561
0.042198
0.070493
0.045215
0.059431
0.031251
0.005089
0.072565
0.085794
0.039818
0.073448
0.020056
0.023689
0.062378
0.042118
0.039365
0.044478
0.030623
0.035152
0.083177
0.031876
0.012690
0.102471
0.069202
0.003389
0.045470
0.052042
0.051111
0.020089
0.038252
0.082751
0.041029
0.035607
0.024893
0.043381
0.030671
0.068919
0.034662
0.059285
0.066319
0.013870
0.060235
0.015267
0.075544
0.024083
0.089790
0.045466
0.094257
0.072837
0.083123
0.068771
0.052744
0.033203
0.036344
0.099565
0.046947
0.017116
0.035548
0.017541
0.027163
0.101861
0.053198
0.049763
0.022912
0.035847
0.044933
0.020546
0.019505
0.050301
0.025531
0.051572
0.086432
0.044435
0.028367
0.085358
0.080077
0.024865
0.055602
0.036595
0.005655
0.044352
0.081165
0.060086
0.075974
0.034646
0.028190
0.016433
0.033208
0.058667
0.030634
0.077232
0.041901
0.040072
0.088664
0.044946
0.013865
0.019958
0.041642
0.078706
0.037684
0.092846
0.092266
0.067595
0.026680
0.070946
0.021616
0.078589
0.035448
0.019837
0.089147
0.045666
0.086286
0.077630
0.017052
0.066936
0.043274
0.018821
0.045640
0.036767
0.024057
0.017886
0.017301
0.047857
0.023563
0.018065
0.008262
0.097579
0.052834
0.061812
0.010636
0.023127
0.022957
0.078599
0.050924
0.017784
0.023687
0.039811
0.085924
0.014193
0.100139
0.101548
0.026941
0.106527
0.082896
0.075797
0.048053
0.058188
0.016201
0.039734
0.034194
0.035438
0.023371
0.013116
0.039261
0.051572
0.064201
0.014846
0.027911
0.080802
0.085677
0.060917
0.005273
0.015977
0.024332
0.012199
0.030513
0.060920
0.016625
0.048482
0.031171
0.031364
0.051455
0.018048
0.095515
0.098985
0.108857
0.113356
0.090731
0.110262
0.026344
0.043330
0.060098
0.079324
0.102236
0.095245
0.089495
0.096829
0.117568
0.106313
0.115427
0.120121
0.063115
0.036149
0.014060
0.014635
0.077531
0.089134
0.099739
0.105874
0.003774
0.058796
0.063076
0.090180
0.013409
0.066048
0.164223
0.137304
0.129376
0.053843
0.095473
0.065022
0.034032
0.104057
0.107574
0.077276
0.006561
0.080373
0.026684
0.037346
0.025858
0.014781
0.010792
0.011817
0.058530
0.020738
0.079289
0.066465
0.076792
0.030946
0.049267
0.023384
0.052890
0.073736
0.053999
0.029061
0.089279
0.070703
0.096050
0.026027
0.073904
0.025465
0.037382
0.036865
0.029507
0.089791
0.059777
0.030486
0.055624
0.043008
0.059269
0.035507
0.016849
0.043082
0.046278
0.020039
0.020290
0.012180
0.034880
0.042954
0.083668
0.041650
0.034925
0.054209
0.070820
0.096324
0.048368
0.033282
0.029669
0.007035
0.019338
0.009194
0.018094
0.065333
0.027719
0.018068
0.010450
0.083123
0.045133
0.048690
0.014926
0.010842
0.009510
0.020070
0.032688
0.033433
0.009961
0.029361
0.005758
0.088380
0.061512
0.039413
0.110233
0.044530
0.034014
0.011858
0.075487
0.039546
0.019945
0.044625
0.010918
0.068368
0.018287
0.027187
0.094531
0.040396
0.018420
0.007861
0.078672
0.026490
0.042673
0.018710
0.044048
0.077056
0.066248
0.085261
0.036966
0.077827
0.095054
0.056000
0.074284
0.030823
0.072965
0.038366
0.077688
0.010983
0.013343
0.047870
0.036285
0.017172
0.035909
0.086081
0.043467
0.069593
0.041932
0.089053
0.077386
0.048410
0.013819
0.023242
0.024499
0.019939
0.035972
0.016769
0.067047
0.014154
0.073836
0.009124
0.047831
0.093166
0.044081
0.049838
0.025660
0.054753
0.030433
0.055340
0.028608
0.022212
0.009612
0.010665
0.097685
0.019449
0.070970
0.037210
0.043883
0.069688
0.032190
0.037134
0.017956
0.051305
0.048659
0.103647
0.016870
0.057084
0.014732
0.042378
0.018167
0.059015
0.033025
0.078246
0.055532
0.035376
0.047064
0.082013
0.019415
0.056397
0.022189
0.030056
0.015003
0.041404
0.038324
0.018917
0.018042
0.082194
0.025401
0.073702
0.023656
0.027664
0.040786
0.058277
0.085182
0.109131
0.031498
0.028594
0.066847
0.026530
0.027048
0.008892
0.047708
0.041409
0.056094
0.099846
0.064291
0.040905
0.021770
0.035564
0.093309
0.066895
0.016105
0.006688
0.033522
0.016975
0.019269
0.005614
0.092182
0.041871
0.094226
0.009140
0.030803
0.041251
0.022823
0.073091
0.066326
0.018709
0.034624
0.032644
0.087652
0.065867
0.056156
0.053057
0.025762
0.070964
0.046006
0.068559
0.043735
0.023439
0.020097
0.087278
0.018586
0.028648
0.030566
0.065418
0.055446
0.018741
0.057786
0.024162
0.030395
0.008760
0.065973
0.057893
0.010350
0.034994
0.064471
0.077751
0.022041
0.070610
0.032497
0.019576
0.030054
0.013032
0.036557
0.049702
0.028644
0.086792
0.022061
0.048145
0.072279
0.034189
0.031160
0.031744
0.051136
0.068099
0.038307
0.060070
0.050179
0.059059
0.065672
0.086173
0.037101
0.017123
0.012257
0.014861
0.083359
0.064271
0.008614
0.020781
0.015473
0.030072
0.030221
0.044464
0.042494
0.080622
0.051957
0.024019
0.051903
0.027886
0.095985
0.143834
0.056207
0.049960
0.028660
0.080994
0.022819
0.012444
0.020418
0.020178
0.074147
0.070432
0.026773
0.008375
0.046604
0.011127
0.035378
0.100606
0.087966
0.074810
0.066455
0.042928
0.057617
0.035136
0.008342
0.014295
0.036427
0.037960
0.068287
0.041001
0.044723
0.056098
0.030340
0.009963
0.077649
0.086281
0.073486
0.037004
0.018809
0.022984
0.062351
0.042882
0.044814
0.042843
0.030225
0.057858
0.076979
0.031234
0.013997
0.101939
0.061384
0.009641
0.045080
0.052432
0.053494
0.021705
0.035492
0.082833
0.045267
0.033539
0.014886
0.047340
0.030650
0.059249
0.068000
0.018575
0.059609
0.019598
0.074344
0.025126
0.088981
0.049392
0.061331
0.051310
0.034843
0.038860
0.026334
0.098251
0.045495
0.015681
0.035128
0.017598
0.045801
0.104389
0.063164
0.048640
0.007408
0.027135
0.043871
0.006687
0.016787
0.051827
0.029869
0.053020
0.085650
0.037022
0.046446
0.028588
0.027163
0.082767
0.076315
0.017479
0.010451
0.050351
0.082611
0.053666
0.080118
0.034010
0.018770
0.030701
0.082728
0.060901
0.029142
0.060769
0.073852
0.088268
0.039661
0.013514
0.015767
0.042756
0.079251
0.037392
0.096028
0.069348
0.091632
0.059577
0.021738
0.074253
0.023425
0.077322
0.035394
0.022652
0.017696
0.087832
0.047761
0.083960
0.077446
0.069634
0.039869
0.017063
0.044218
0.040875
0.027274
0.060905
0.038642
0.046089
0.022010
0.015751
0.013627
0.094532
0.052603
0.048245
0.058214
0.023654
0.021844
0.080915
0.053155
0.018419
0.024866
0.044171
0.090410
0.015237
0.101258
0.099281
0.029459
0.119576
0.070732
0.067898
0.042039
0.060070
0.018054
0.036068
0.033545
0.024692
0.013692
0.027634
0.026566
0.038787
0.052398
0.064604
0.013954
0.026733
0.079895
0.081610
0.060583
0.007810
0.018372
0.022326
0.012398
0.027988
0.064218
0.006867
0.032463
0.015674
0.050772
0.023753
0.053626
0.059296
0.165629
0.161969
0.093586
0.068323
0.023336
0.013426
0.013658
0.021459
0.112164
0.155441
0.178121
0.179949
0.032077
0.057780
0.015886
0.026767
0.140331
0.130949
0.068441
0.116231
