# vtk DataFile Version 2.0
Unstructured Grid Example
ASCII
DATASET UNSTRUCTURED_GRID
POINTS 1221 float
-0.007223 0.002586 0.014651 
0.998254 0.001467 -0.010670 
0.999530 0.997995 -0.009508 
-0.001854 1.000028 0.006439 
0.004015 0.000326 0.064642 
1.004926 0.001099 0.039365 
1.003915 0.998889 0.040519 
-0.000331 0.997068 0.056451 
0.004279 0.050239 0.066211 
0.004242 0.100659 0.066971 
0.004088 0.151415 0.065840 
0.003186 0.201014 0.062486 
0.002287 0.251629 0.058555 
0.001692 0.301262 0.054587 
0.001493 0.350561 0.052143 
0.001303 0.399600 0.051755 
0.001534 0.448747 0.053900 
0.001397 0.498752 0.057494 
0.001938 0.549162 0.061133 
0.002441 0.599898 0.063234 
0.002687 0.651007 0.062449 
0.002428 0.701755 0.059090 
0.001910 0.751307 0.054353 
0.001669 0.800401 0.050892 
0.000860 0.848891 0.048743 
0.000462 0.897884 0.050221 
0.000128 0.947164 0.053196 
-0.005568 0.052245 0.016012 
-0.005175 0.101524 0.016818 
-0.003684 0.150519 0.015902 
-0.002301 0.199489 0.012264 
-0.000946 0.249286 0.008386 
-0.000836 0.298876 0.004822 
-0.000991 0.349285 0.002069 
-0.001329 0.400089 0.001757 
-0.001805 0.450681 0.003871 
-0.002151 0.501228 0.007495 
-0.002474 0.550835 0.011052 
-0.002799 0.600367 0.013169 
-0.002335 0.649408 0.012516 
-0.001912 0.698692 0.008965 
-0.001144 0.748431 0.004480 
-0.000327 0.798976 0.000486 
-0.000022 0.849371 -0.001099 
-0.000499 0.899945 0.000127 
-0.001229 0.950060 0.003150 
-0.001601 0.001422 0.039488 
-0.001076 0.998557 0.031377 
0.053566 -0.000636 0.052765 
0.102919 -0.001195 0.041136 
0.150713 -0.001973 0.035283 
0.198259 -0.001371 0.035852 
0.247185 -0.001592 0.040891 
0.296968 -0.001173 0.048524 
0.348795 -0.000207 0.056515 
0.400101 0.000417 0.059780 
0.451894 0.000699 0.058396 
0.502913 0.000718 0.052687 
0.552604 0.000261 0.045406 
0.601136 -0.000184 0.040349 
0.648859 -0.000814 0.040638 
0.697636 -0.000745 0.045882 
0.747828 -0.000505 0.052911 
0.800047 -0.000285 0.057568 
0.852057 0.000095 0.057611 
0.903590 0.000260 0.053271 
0.954618 0.000742 0.046414 
0.042952 0.001832 0.002473 
0.094553 0.001839 -0.008536 
0.148501 0.001043 -0.014539 
0.200997 0.000299 -0.014007 
0.251955 0.000091 -0.009057 
0.303495 0.000334 -0.001410 
0.352519 0.000007 0.006346 
0.400496 -0.000005 0.009902 
0.448543 0.000075 0.008324 
0.497399 0.000106 0.002693 
0.547755 0.000150 -0.004577 
0.599026 0.000127 -0.009353 
0.651151 0.000257 -0.009535 
0.702510 -0.000135 -0.004053 
0.752586 -0.000871 0.003362 
0.801162 -0.000837 0.007355 
0.849552 -0.000553 0.007648 
0.898695 0.000010 0.003344 
0.948083 0.000875 -0.003436 
1.001569 0.001281 0.014458 
1.004009 0.051164 0.040222 
1.002772 0.100971 0.041290 
1.002383 0.150874 0.041313 
1.002411 0.200606 0.040529 
1.002575 0.250329 0.039876 
1.002569 0.300029 0.039048 
1.002870 0.349785 0.038664 
1.003385 0.399504 0.038640 
1.003396 0.449637 0.039341 
1.002994 0.499646 0.040775 
1.002709 0.549801 0.042757 
1.001660 0.599690 0.045194 
1.000682 0.649901 0.048015 
1.000072 0.700161 0.048892 
1.000306 0.750218 0.048330 
1.000396 0.799859 0.047009 
1.000997 0.849416 0.045306 
1.001875 0.899257 0.043690 
1.003012 0.948946 0.041885 
0.998112 0.051408 -0.009572 
0.997531 0.101223 -0.008819 
0.997406 0.150732 -0.008751 
0.996595 0.200239 -0.009557 
0.996304 0.249780 -0.010261 
0.996533 0.299487 -0.010927 
0.997144 0.349468 -0.011242 
0.997380 0.399721 -0.011299 
0.997977 0.450076 -0.010608 
0.998579 0.500566 -0.009146 
0.998700 0.550726 -0.007178 
0.998898 0.601083 -0.004635 
0.999449 0.650941 -0.002145 
0.999222 0.700319 -0.001160 
0.998647 0.749642 -0.001784 
0.998493 0.799021 -0.003141 
0.998517 0.848525 -0.004735 
0.998774 0.898278 -0.006386 
0.998997 0.948005 -0.008082 
1.001719 0.998454 0.015620 
0.953607 0.999390 0.045385 
0.902988 0.999650 0.050444 
0.851759 0.999963 0.053634 
0.800723 1.000217 0.055284 
0.749577 1.000248 0.054878 
0.699194 1.000236 0.052771 
0.648944 1.000001 0.049866 
0.598864 0.999923 0.047491 
0.549434 0.999664 0.046429 
0.500236 0.999687 0.047016 
0.450750 0.999860 0.048972 
0.400889 0.999865 0.051452 
0.350389 0.999980 0.053144 
0.299548 1.000141 0.053217 
0.249367 0.999957 0.052316 
0.199388 0.999794 0.051664 
0.149377 0.999374 0.051713 
0.099510 0.998610 0.052728 
0.049690 0.997697 0.054562 
0.949563 0.998832 -0.004429 
0.899326 0.999691 0.000570 
0.850099 1.000257 0.003793 
0.800119 1.000664 0.005357 
0.750546 1.000814 0.004972 
0.700703 1.000611 0.002865 
0.650545 1.000371 -0.000109 
0.600043 0.999861 -0.002477 
0.549582 0.999523 -0.003586 
0.499167 0.999319 -0.003050 
0.449276 0.999380 -0.001115 
0.399455 0.999949 0.001421 
0.349808 1.000422 0.003214 
0.300287 1.000941 0.003267 
0.250220 1.001304 0.002362 
0.199606 1.001206 0.001727 
0.149117 1.000934 0.001738 
0.098526 1.000700 0.002728 
0.048262 1.000359 0.004548 
0.023070 0.999107 0.024427 
0.019011 0.998148 0.041131 
0.976901 0.998678 0.011780 
0.982766 0.998883 0.027857 
0.481406 0.999500 0.022564 
0.775230 1.000496 0.030450 
0.674551 1.000315 0.026350 
0.525297 0.999520 0.021453 
0.724904 1.000493 0.029083 
0.624456 1.000087 0.023487 
0.073980 0.999337 0.028620 
0.224629 1.000638 0.026924 
0.574551 0.999752 0.021722 
0.174374 1.000363 0.026609 
0.124122 0.999939 0.027099 
0.875932 0.999948 0.027498 
0.825524 1.000281 0.029783 
0.375091 1.000109 0.027418 
0.919537 0.999416 0.023625 
0.274842 1.000562 0.027862 
0.324972 1.000405 0.028454 
0.425040 0.999726 0.025249 
0.501223 0.499686 0.051842 
0.291206 0.294839 0.053327 
0.707308 0.705196 0.047586 
0.708011 0.290663 0.049056 
0.290343 0.709383 0.050667 
0.501771 0.781019 0.049349 
0.784533 0.498387 0.055922 
0.501032 0.224018 0.048639 
0.223507 0.502594 0.042858 
0.169237 0.169858 0.043674 
0.831030 0.169102 0.057198 
0.830171 0.831281 0.052739 
0.169626 0.830385 0.045374 
0.564571 0.640252 0.047957 
0.437006 0.359759 0.054663 
0.641865 0.437362 0.043098 
0.352066 0.567039 0.055043 
0.639241 0.846600 0.047330 
0.360564 0.153612 0.058469 
0.151952 0.360725 0.043249 
0.848336 0.360279 0.058398 
0.846659 0.641450 0.052580 
0.641292 0.153576 0.043030 
0.358289 0.846535 0.052632 
0.154366 0.634885 0.046425 
0.678288 0.581511 0.046662 
0.561273 0.330991 0.041765 
0.440090 0.668813 0.055502 
0.320876 0.420838 0.052738 
0.533681 0.881597 0.047132 
0.466357 0.118348 0.055158 
0.884728 0.465732 0.053557 
0.120887 0.465209 0.044768 
0.743955 0.896966 0.053188 
0.109248 0.258718 0.048384 
0.257229 0.096595 0.046399 
0.897608 0.255653 0.053922 
0.889232 0.737092 0.051690 
0.736557 0.109492 0.051663 
0.262618 0.889964 0.049954 
0.111951 0.738920 0.046680 
0.600874 0.739775 0.045887 
0.399723 0.260335 0.058001 
0.743904 0.404788 0.054183 
0.250693 0.597691 0.045935 
0.599317 0.520666 0.044991 
0.396864 0.475185 0.056897 
0.611193 0.254235 0.040621 
0.388552 0.745974 0.054625 
0.099567 0.094164 0.047478 
0.903739 0.094865 0.052526 
0.905822 0.902000 0.050395 
0.098794 0.904583 0.048292 
0.437005 0.902910 0.050207 
0.904685 0.563237 0.051419 
0.564314 0.097256 0.043868 
0.098637 0.562725 0.050795 
0.257792 0.201571 0.050103 
0.740952 0.797441 0.050753 
0.796430 0.257720 0.057935 
0.209244 0.745753 0.045961 
0.195385 0.278550 0.045678 
0.797517 0.716369 0.051386 
0.713320 0.206072 0.049559 
0.285068 0.793589 0.050205 
0.503388 0.411939 0.049270 
0.498045 0.588079 0.052906 
0.240360 0.365596 0.046809 
0.758957 0.634528 0.050364 
0.688944 0.500754 0.047613 
0.644897 0.345256 0.042325 
0.307166 0.505048 0.050619 
0.352938 0.654620 0.055310 
0.082972 0.183633 0.053138 
0.177775 0.082840 0.039163 
0.817964 0.919474 0.054140 
0.921061 0.182651 0.050949 
0.917259 0.820727 0.050271 
0.821980 0.082151 0.057092 
0.082339 0.817501 0.046184 
0.185259 0.914092 0.048472 
0.652201 0.655394 0.045843 
0.347383 0.344982 0.056339 
0.514869 0.696361 0.050590 
0.487113 0.303702 0.049166 
0.610019 0.917150 0.047374 
0.389654 0.083083 0.059008 
0.079486 0.394679 0.046399 
0.919262 0.389906 0.049716 
0.924627 0.660561 0.050793 
0.659283 0.074369 0.042626 
0.339307 0.925124 0.052577 
0.076586 0.662259 0.053558 
0.431387 0.821608 0.051559 
0.821229 0.566244 0.054403 
0.569065 0.178304 0.042863 
0.180854 0.566437 0.043739 
0.190147 0.431757 0.041799 
0.573964 0.818078 0.046451 
0.427228 0.179492 0.057563 
0.822432 0.427062 0.058678 
0.566723 0.457190 0.044677 
0.435774 0.541967 0.056750 
0.772885 0.331045 0.057281 
0.225412 0.668405 0.046238 
0.667035 0.781257 0.047075 
0.332249 0.218218 0.057179 
0.676599 0.930462 0.050780 
0.069919 0.318421 0.048919 
0.321383 0.068646 0.054219 
0.932734 0.322612 0.048574 
0.745780 0.559697 0.051192 
0.448472 0.736376 0.053316 
0.552802 0.263709 0.042426 
0.614888 0.594606 0.045866 
0.386125 0.406186 0.056224 
0.257158 0.443721 0.046213 
0.586462 0.392765 0.041654 
0.415043 0.606967 0.057125 
0.451035 0.428299 0.054333 
0.549669 0.571903 0.048823 
0.484916 0.934385 0.048029 
0.937429 0.515364 0.047796 
0.517539 0.065807 0.049993 
0.066955 0.514739 0.052293 
0.500132 0.838022 0.048517 
0.839537 0.507599 0.056258 
0.501496 0.152851 0.050105 
0.154269 0.500807 0.043272 
0.695724 0.842846 0.049744 
0.302925 0.156361 0.054258 
0.842616 0.302823 0.058564 
0.150201 0.702425 0.045978 
0.160716 0.231048 0.045220 
0.841528 0.773380 0.052220 
0.772564 0.157286 0.055170 
0.226770 0.842197 0.047481 
0.668606 0.238040 0.044780 
0.330072 0.762013 0.052811 
0.695240 0.355693 0.047828 
0.301830 0.644295 0.051187 
0.940862 0.606646 0.049360 
0.607465 0.060404 0.040669 
0.394157 0.939594 0.051669 
0.062277 0.606300 0.056366 
0.698964 0.433225 0.048399 
0.301985 0.558483 0.050173 
0.058011 0.053608 0.054574 
0.949069 0.054602 0.047245 
0.948366 0.945183 0.046585 
0.054661 0.943918 0.051285 
0.772943 0.946435 0.054786 
0.057295 0.233006 0.054500 
0.225549 0.052797 0.040393 
0.945191 0.771697 0.049915 
0.770570 0.054153 0.055285 
0.228506 0.944954 0.050336 
0.948332 0.227352 0.047378 
0.056843 0.772320 0.048839 
0.219236 0.159236 0.044742 
0.775091 0.847916 0.052944 
0.846641 0.224374 0.057483 
0.156478 0.774778 0.044743 
0.552920 0.947440 0.046631 
[...]
POINT_DATA 1221
SCALARS u float 1
LOOKUP_TABLE default
0.175007
0.115457
0.102949
0.070907
0.160701
0.124564
0.109179
0.075073
0.177443
0.185242
0.173756
0.136786
0.095277
0.053435
0.028267
0.023518
0.046291
0.081744
0.119913
0.142410
0.135185
0.101277
0.052171
0.020471
0.019935
0.023039
0.045239
0.180955
0.186898
0.172816
0.132149
0.089622
0.053131
0.025433
0.023328
0.045766
0.083528
0.120168
0.142519
0.134876
0.097984
0.051664
0.012482
0.013399
0.005475
0.035787
0.154981
0.070117
0.048222
0.099558
0.157307
0.151545
0.102284
0.037778
0.070144
0.103592
0.091375
0.042618
0.055944
0.102848
0.100171
0.050862
0.038800
0.080145
0.083432
0.051464
0.062362
0.081384
0.108910
0.155063
0.148633
0.098056
0.040039
0.072251
0.104916
0.089430
0.039636
0.053973
0.099518
0.101670
0.050463
0.045826
0.079292
0.081280
0.037991
0.042654
0.113598
0.112504
0.097268
0.095767
0.103621
0.110601
0.119037
0.123763
0.125544
0.118439
0.102706
0.081863
0.053908
0.022232
0.011875
0.018119
0.031962
0.051151
0.070100
0.092278
0.104311
0.097775
0.096897
0.107384
0.115435
0.121437
0.122869
0.122771
0.114276
0.098132
0.077576
0.051705
0.025467
0.015160
0.023988
0.038294
0.054773
0.071177
0.088726
0.102235
0.062320
0.032184
0.042719
0.056483
0.051881
0.030637
0.011267
0.029159
0.038426
0.031844
0.013542
0.018067
0.033521
0.034412
0.025407
0.018883
0.020399
0.032810
0.054180
0.048692
0.009903
0.040248
0.057133
0.053625
0.031878
0.007070
0.026262
0.038538
0.034225
0.015521
0.016116
0.034361
0.036103
0.028646
0.022676
0.022872
0.033637
0.051661
0.060785
0.064100
0.077573
0.085269
0.026459
0.057961
0.015416
0.038161
0.043536
0.017040
0.040415
0.021804
0.035235
0.018675
0.024083
0.028222
0.051007
0.025627
0.020304
0.030913
0.036807
0.003940
0.023631
0.037134
0.025855
0.015079
0.009476
0.009141
0.062805
0.023172
0.076014
0.068345
0.076421
0.029182
0.049393
0.024052
0.049988
0.073339
0.055137
0.028974
0.089658
0.071793
0.090415
0.027592
0.073793
0.027963
0.038321
0.035320
0.087389
0.058915
0.030839
0.030667
0.056094
0.045651
0.056485
0.034189
0.022528
0.042862
0.042916
0.018402
0.020495
0.005065
0.039634
0.043622
0.085088
0.046501
0.044269
0.053981
0.074048
0.099478
0.049195
0.034496
0.030258
0.008826
0.020310
0.003330
0.022670
0.066133
0.020561
0.012205
0.012457
0.084498
0.042908
0.046741
0.016568
0.015827
0.004341
0.015896
0.032006
0.034210
0.004599
0.026082
0.082002
0.018276
0.057373
0.044093
0.115950
0.044116
0.022659
0.004008
0.076079
0.043386
0.016234
0.044116
0.067641
0.011013
0.015190
0.027854
0.095333
0.039836
0.022862
0.009138
0.079395
0.027688
0.044763
0.016720
0.046820
0.075808
0.067834
0.086872
0.037741
0.080419
0.092227
0.058000
0.071605
0.078474
0.039852
0.031455
0.076803
0.011453
0.019291
0.048059
0.029511
0.012688
0.035733
0.080736
0.044558
0.065937
0.043132
0.088992
0.075587
0.046126
0.016967
0.021156
0.037231
0.025102
0.030286
0.016533
0.068405
0.013885
0.071734
0.010440
0.046492
0.090665
0.043608
0.051981
0.024013
0.055683
0.026775
0.057127
0.029839
0.028936
0.018390
0.014869
0.099251
0.018112
0.070573
0.021782
0.020263
0.061761
0.047342
0.044828
0.025174
0.050907
0.051242
0.103782
0.001151
0.057493
0.006083
0.033792
0.024480
0.057057
0.031555
0.079764
0.056328
0.035972
0.055946
0.083825
0.015919
0.057477
0.023337
0.030227
0.013558
0.024334
0.036847
0.012856
0.020382
0.081039
0.040101
0.074834
0.025732
0.026586
0.043039
0.078082
0.083376
0.113404
0.029701
0.030881
0.067345
0.025239
0.029243
0.008073
0.061065
0.045342
0.068832
0.056458
0.101853
0.064948
0.048987
0.036239
0.093137
0.065290
0.010205
0.008787
0.034571
0.014392
0.020085
0.005573
0.041657
0.094508
0.100486
0.005317
0.028941
0.042774
0.021425
0.073764
0.065148
0.016872
0.033084
0.031975
0.088927
0.050403
0.059280
0.050147
0.024096
0.072193
0.043557
0.070016
0.044238
0.022394
0.022228
0.087360
0.019690
0.026968
0.034630
0.062962
0.055309
0.039293
0.056223
0.018600
0.057594
0.026710
0.037718
0.008945
0.066912
0.054990
0.006957
0.043429
0.063437
0.076057
0.019336
0.071393
0.030846
0.017104
0.037815
0.013196
0.033078
0.050335
0.028153
0.084090
0.021879
0.046487
0.073634
0.033493
0.034105
0.033597
0.047809
0.037360
0.057509
0.051292
0.058216
0.065557
0.047483
0.083842
0.013310
0.017287
0.088965
0.065648
0.011942
0.015976
0.011320
0.030395
0.029540
0.041515
0.041864
0.079312
0.024821
0.051400
0.056068
0.025594
0.104072
0.143057
0.052537
0.049349
0.020125
0.085147
0.027891
0.004465
0.026615
0.047468
0.023433
0.020754
0.018590
0.011180
0.032227
0.101094
0.073472
0.045744
0.058656
0.032210
0.012092
0.012504
0.036745
0.065425
0.036561
0.042198
0.070493
0.045215
0.059431
0.031251
0.005089
0.072565
0.085794
0.039818
0.073448
0.020056
0.023689
0.062378
0.042118
0.039365
0.044478
0.030623
0.035152
0.083177
0.031876
0.012690
0.102471
0.069202
0.003389
0.045470
0.052042
0.051111
0.020089
0.038252
0.082751
0.041029
0.035607
0.024893
0.043381
0.030671
0.068919
0.034662
0.059285
0.066319
0.013870
0.060235
0.015267
0.075544
0.024083
0.089790
0.045466
0.094257
0.072837
0.083123
0.068771
0.052744
0.033203
0.036344
0.099565
0.046947
0.017116
0.035548
0.017541
0.027163
0.101861
0.053198
0.049763
0.022912
0.035847
0.044933
0.020546
0.019505
0.050301
0.025531
0.051572
0.086432
0.044435
0.028367
0.085358
0.080077
0.024865
0.055602
0.036595
0.005655
0.044352
0.081165
0.060086
0.075974
0.034646
0.028190
0.016433
0.033208
0.058667
0.030634
0.077232
0.041901
0.040072
0.088664
0.044946
0.013865
0.019958
0.041642
0.078706
0.037684
0.092846
0.092266
0.067595
0.026680
0.070946
0.021616
0.078589
0.035448
0.019837
0.089147
0.045666
0.086286
0.077630
0.017052
0.066936
0.043274
0.018821
0.045640
0.036767
0.024057
0.017886
0.017301
0.047857
0.023563
0.018065
0.008262
0.097579
0.052834
0.061812
0.010636
0.023127
0.022957
0.078599
0.050924
0.017784
0.023687
0.039811
0.085924
0.014193
0.100139
0.101548
0.026941
0.106527
0.082896
0.075797
0.048053
0.058188
0.016201
0.039734
0.034194
0.035438
0.023371
0.013116
0.039261
0.051572
0.064201
0.014846
0.027911
0.080802
0.085677
0.060917
0.005273
0.015977
0.024332
0.012199
0.030513
0.060920
0.016625
0.048482
0.031171
0.031364
0.051455
0.018048
0.095515
0.098985
0.108857
0.113356
0.090731
0.110262
0.026344
0.043330
0.060098
0.079324
0.102236
0.095245
0.089495
0.096829
0.117568
0.106313
0.115427
0.120121
0.063115
0.036149
0.014060
0.014635
0.077531
0.089134
0.099739
0.105874
0.003774
0.058796
0.063076
0.090180
0.013409
0.066048
0.164223
0.137304
0.129376
0.053843
0.095473
0.065022
0.034032
0.104057
0.107574
0.077276
0.006561
0.080373
0.026684
0.037346
0.025858
0.014781
0.010792
0.011817
0.058530
0.020738
0.079289
0.066465
0.076792
0.030946
0.049267
0.023384
0.052890
0.073736
0.053999
0.029061
0.089279
0.070703
0.096050
0.026027
0.073904
0.025465
0.037382
0.036865
0.029507
0.089791
0.059777
0.030486
0.055624
0.043008
0.059269
0.035507
0.016849
0.043082
0.046278
0.020039
0.020290
0.012180
0.034880
0.042954
0.083668
0.041650
0.034925
0.054209
0.070820
0.096324
0.048368
0.033282
0.029669
0.007035
0.019338
0.009194
0.018094
0.065333
0.027719
0.018068
0.010450
0.083123
0.045133
0.048690
0.014926
0.010842
0.009510
0.020070
0.032688
0.033433
0.009961
0.029361
0.005758
0.088380
0.061512
0.039413
0.110233
0.044530
0.034014
0.011858
0.075487
0.039546
0.019945
0.044625
0.010918
0.068368
0.018287
0.027187
0.094531
0.040396
0.018420
0.007861
0.078672
0.026490
0.042673
0.018710
0.044048
0.077056
0.066248
0.085261
0.036966
0.077827
0.095054
0.056000
0.074284
0.030823
0.072965
0.038366
0.077688
0.010983
0.013343
0.047870
0.036285
0.017172
0.035909
0.086081
0.043467
0.069593
0.041932
0.089053
0.077386
0.048410
0.013819
0.023242
0.024499
0.019939
0.035972
0.016769
0.067047
0.014154
0.073836
0.009124
0.047831
0.093166
0.044081
0.049838
0.025660
0.054753
0.030433
0.055340
0.028608
0.022212
0.009612
0.010665
0.097685
0.019449
0.070970
0.037210
0.043883
0.069688
0.032190
0.037134
0.017956
0.051305
0.048659
0.103647
0.016870
0.057084
0.014732
0.042378
0.018167
0.059015
0.033025
0.078246
0.055532
0.035376
0.047064
0.082013
0.019415
0.056397
0.022189
0.030056
0.015003
0.041404
0.038324
0.018917
0.018042
0.082194
0.025401
0.073702
0.023656
0.027664
0.040786
0.058277
0.085182
0.109131
0.031498
0.028594
0.066847
0.026530
0.027048
0.008892
0.047708
0.041409
0.056094
0.099846
0.064291
0.040905
0.021770
0.035564
0.093309
0.066895
0.016105
0.006688
0.033522
0.016975
0.019269
0.005614
0.092182
0.041871
0.094226
0.009140
0.030803
0.041251
0.022823
0.073091
0.066326
0.018709
0.034624
0.032644
0.087652
0.065867
0.056156
0.053057
0.025762
0.070964
0.046006
0.068559
0.043735
0.023439
0.020097
0.087278
0.018586
0.028648
0.030566
0.065418
0.055446
0.018741
0.057786
0.024162
0.030395
0.008760
0.065973
0.057893
0.010350
0.034994
0.064471
0.077751
0.022041
0.070610
0.032497
0.019576
0.030054
0.013032
0.036557
0.049702
0.028644
0.086792
0.022061
0.048145
0.072279
0.034189
0.031160
0.031744
0.051136
0.068099
0.038307
0.060070
0.050179
0.059059
0.065672
0.086173
0.037101
0.017123
0.012257
0.014861
0.083359
0.064271
0.008614
0.020781
0.015473
0.030072
0.030221
0.044464
0.042494
0.080622
0.051957
0.024019
0.051903
0.027886
0.095985
0.143834
0.056207
0.049960
0.028660
0.080994
0.022819
0.012444
0.020418
0.020178
0.074147
0.070432
0.026773
0.008375
0.046604
0.011127
0.035378
0.100606
0.087966
0.074810
0.066455
0.042928
0.057617
0.035136
0.008342
0.014295
0.036427
0.037960
0.068287
0.041001
0.044723
0.056098
0.030340
0.009963
0.077649
0.086281
0.073486
0.037004
0.018809
0.022984
0.062351
0.042882
0.044814
0.042843
0.030225
0.057858
0.076979
0.031234
0.013997
0.101939
0.061384
0.009641
0.045080
0.052432
0.053494
0.021705
0.035492
0.082833
0.045267
0.033539
0.014886
0.047340
0.030650
0.059249
0.068000
0.018575
0.059609
0.019598
0.074344
0.025126
0.088981
0.049392
0.061331
0.051310
0.034843
0.038860
0.026334
0.098251
0.045495
0.015681
0.035128
0.017598
0.045801
0.104389
0.063164
0.048640
0.007408
0.027135
0.043871
0.006687
0.016787
0.051827
0.029869
0.053020
0.085650
0.037022
0.046446
0.028588
0.027163
0.082767
0.076315
0.017479
0.010451
0.050351
0.082611
0.053666
0.080118
0.034010
0.018770
0.030701
0.082728
0.060901
0.029142
0.060769
0.073852
0.088268
0.039661
0.013514
0.015767
0.042756
0.079251
0.037392
0.096028
0.069348
0.091632
0.059577
0.021738
0.074253
0.023425
0.077322
0.035394
0.022652
0.017696
0.087832
0.047761
0.083960
0.077446
0.069634
0.039869
0.017063
0.044218
0.040875
0.027274
0.060905
0.038642
0.046089
0.022010
0.015751
0.013627
0.094532
0.052603
0.048245
0.058214
0.023654
0.021844
0.080915
0.053155
0.018419
0.024866
0.044171
0.090410
0.015237
0.101258
0.099281
0.029459
0.119576
0.070732
0.067898
0.042039
0.060070
0.018054
0.036068
0.033545
0.024692
0.013692
0.027634
0.026566
0.038787
0.052398
0.064604
0.013954
0.026733
0.079895
0.081610
0.060583
0.007810
0.018372
0.022326
0.012398
0.027988
0.064218
0.006867
0.032463
0.015674
0.050772
0.023753
0.053626
0.059296
0.165629
0.161969
0.093586
0.068323
0.023336
0.013426
0.013658
0.021459
0.112164
0.155441
0.178121
0.179949
0.032077
0.057780
0.015886
0.026767
0.140331
0.130949
0.068441
0.116231
