# vtk DataFile Version 2.0
Unstructured Grid Example
ASCII
DATASET UNSTRUCTURED_GRID
POINTS 2044 float
0.827898 -0.059690 -0.216171 
0.066978 1.169130 0.212676 
-1.165689 -0.106007 0.193835 
0.094075 -0.807908 -0.230734 
0.029482 -0.023587 0.990670 
0.852042 -0.164727 -0.159601 
0.867683 -0.268203 -0.085853 
0.887450 -0.368452 -0.010491 
0.897257 -0.467643 0.068867 
0.896565 -0.568008 0.129789 
0.887850 -0.664574 0.190566 
0.849162 -0.747839 0.243086 
0.820206 -0.813546 0.257940 
0.764498 -0.857408 0.244357 
0.682638 -0.892854 0.204643 
0.593864 -0.904433 0.149229 
0.499117 -0.899704 0.075707 
0.406537 -0.894332 0.001171 
0.307594 -0.869173 -0.081450 
0.200320 -0.837740 -0.159551 
-0.001308 -0.782189 -0.278493 
-0.108030 -0.754475 -0.307715 
-0.221633 -0.736104 -0.304942 
-0.327460 -0.722884 -0.278753 
-0.444168 -0.702478 -0.245464 
-0.555803 -0.695355 -0.152495 
-0.670381 -0.673669 -0.069118 
-0.779193 -0.649625 0.010325 
-0.877186 -0.608541 0.090659 
-0.974585 -0.571565 0.163251 
-1.055595 -0.512081 0.224764 
-1.119482 -0.449245 0.265513 
-1.158559 -0.372275 0.276018 
-1.180262 -0.279780 0.262296 
-1.188647 -0.189995 0.237231 
-1.124018 -0.004900 0.129825 
-1.070899 0.085891 0.051317 
-1.012562 0.178809 -0.019257 
-0.950844 0.273602 -0.084289 
-0.864310 0.359670 -0.152585 
-0.778720 0.441021 -0.199788 
-0.698395 0.527262 -0.225364 
-0.610200 0.611935 -0.243417 
-0.531403 0.702702 -0.218305 
-0.456104 0.782747 -0.173566 
-0.376691 0.871083 -0.114175 
-0.291540 0.957886 -0.047493 
-0.203011 1.024740 0.031259 
-0.121587 1.093430 0.101013 
-0.026488 1.144937 0.165254 
0.156022 1.199081 0.255646 
0.243231 1.200604 0.271498 
0.334458 1.172545 0.267027 
0.413763 1.125898 0.238981 
0.484918 1.075203 0.209784 
0.537610 0.993401 0.145867 
0.585336 0.901734 0.075315 
0.625838 0.805067 -0.000013 
0.647380 0.683282 -0.072355 
0.679387 0.580675 -0.152209 
0.712007 0.477473 -0.201846 
0.725436 0.370585 -0.252002 
0.742337 0.266686 -0.285435 
0.768309 0.155254 -0.280633 
0.801066 0.048992 -0.258273 
0.851279 -0.036937 -0.112845 
0.866563 -0.021818 -0.004659 
0.882970 -0.012877 0.110409 
0.886552 -0.010107 0.226131 
0.864217 -0.013671 0.330472 
0.835497 -0.012639 0.442298 
0.794417 -0.013442 0.546685 
0.736560 -0.026669 0.649619 
0.670633 -0.021491 0.733981 
0.603591 -0.024222 0.819311 
0.517458 -0.026284 0.878888 
0.427575 -0.030094 0.933211 
0.330212 -0.026984 0.971735 
0.229357 -0.025117 0.986216 
0.129200 -0.026022 0.995917 
0.033487 0.073951 0.976241 
0.031285 0.168038 0.959255 
0.030278 0.261301 0.933084 
0.030318 0.352444 0.903792 
0.026369 0.433689 0.857512 
0.014575 0.519563 0.826349 
0.009759 0.597208 0.788488 
0.008264 0.682871 0.739138 
0.009509 0.762713 0.683457 
0.003685 0.843266 0.644903 
0.013584 0.918726 0.598140 
0.024287 0.968134 0.530418 
0.028801 1.037843 0.467817 
0.037272 1.093194 0.394928 
0.048408 1.141712 0.312787 
-0.067021 -0.017295 0.976499 
-0.160066 -0.011432 0.963882 
-0.253782 -0.004202 0.937229 
-0.344667 0.003890 0.902899 
-0.429997 0.007231 0.871194 
-0.515452 0.009357 0.834357 
-0.597163 0.004484 0.793481 
-0.676965 -0.000149 0.744767 
-0.760320 -0.002531 0.695846 
-0.840217 -0.006795 0.645125 
-0.910879 -0.009489 0.583069 
-0.978810 -0.015338 0.520070 
-1.036328 -0.029023 0.450709 
-1.089074 -0.048238 0.374312 
-1.139539 -0.073758 0.288201 
0.023846 -0.122953 0.989762 
0.018048 -0.223513 0.982471 
0.015431 -0.320193 0.962583 
0.005794 -0.415832 0.921896 
0.002132 -0.512170 0.873672 
-0.012850 -0.596135 0.809193 
-0.018696 -0.672104 0.737798 
-0.011577 -0.744709 0.659778 
-0.013118 -0.796707 0.561894 
-0.009609 -0.832568 0.453482 
0.007485 -0.865867 0.334734 
0.015426 -0.875992 0.212104 
0.030618 -0.867290 0.095759 
0.045314 -0.852912 -0.019122 
0.068608 -0.835579 -0.124288 
0.765606 0.405356 0.325110 
0.393021 0.319108 0.846824 
0.380311 0.926815 0.569283 
0.824305 0.290812 0.093794 
0.830742 0.245226 -0.017883 
0.833862 0.183180 -0.050998 
0.803355 0.169325 -0.143984 
0.549069 0.836642 0.452027 
0.581929 0.277040 0.754868 
0.307511 0.642926 0.747178 
0.704307 0.620278 0.227409 
0.747506 0.249166 0.525608 
0.700093 0.650806 0.112870 
0.777406 0.151677 0.512192 
0.249456 0.489517 0.841354 
0.244877 0.831708 0.680405 
0.750621 0.490457 0.043896 
0.811038 0.179670 0.349916 
0.171235 0.373508 0.893619 
0.169227 0.951177 0.612336 
0.457471 0.750603 0.631651 
0.458444 0.467257 0.763166 
0.445926 1.035177 0.377464 
0.477129 0.116126 0.875919 
0.763887 0.417840 -0.063621 
0.848160 0.147459 0.220584 
0.125957 0.308899 0.927515 
0.123920 1.007003 0.548344 
0.316433 1.123976 0.376581 
0.328303 0.083338 0.962226 
0.762235 0.323348 -0.173827 
0.862924 0.078070 0.144344 
0.614009 0.538438 0.590675 
0.119111 0.245435 0.943195 
0.119336 1.053375 0.499521 
0.266728 1.156157 0.352353 
0.266231 0.056975 0.976500 
0.858839 0.086007 -0.009585 
0.776525 0.241494 -0.214245 
0.832729 0.068590 -0.115138 
0.701437 0.381160 0.554004 
0.666570 0.599003 0.415103 
0.563273 0.720370 0.538187 
0.579920 0.401754 0.692324 
0.738391 0.526727 0.231881 
0.771116 0.301116 0.417132 
0.721094 0.462987 0.411749 
0.434123 0.610034 0.713748 
0.381859 0.145061 0.924484 
0.363896 1.070105 0.428105 
0.427737 0.986820 0.491762 
0.450708 0.228448 0.869447 
0.376370 0.694427 0.693823 
0.377640 0.556879 0.756802 
0.516756 0.804296 0.559220 
0.526116 0.373742 0.753844 
0.323172 0.418818 0.838395 
0.311402 0.863706 0.639844 
0.502965 0.932386 0.420077 
0.538657 0.208115 0.817845 
0.349772 0.487904 0.799131 
0.350456 0.780208 0.665493 
0.279716 0.357921 0.871267 
0.272314 0.930146 0.604065 
0.791586 0.405443 0.132759 
0.826278 0.230598 0.225274 
0.490217 0.298680 0.810150 
0.471794 0.892569 0.522229 
0.419501 0.842503 0.600865 
0.426446 0.391355 0.805058 
0.134676 0.533173 0.836920 
0.124126 0.815618 0.683466 
0.235160 0.740016 0.713553 
0.238877 0.577526 0.804401 
0.109718 0.447879 0.857857 
0.096203 0.896504 0.637867 
0.690981 0.261619 0.631332 
0.652087 0.715426 0.328573 
0.510407 1.018463 0.264622 
0.557164 0.044852 0.850018 
0.220798 0.984255 0.568474 
0.224724 0.309415 0.900667 
0.254410 1.100924 0.446796 
0.263777 0.156152 0.955712 
0.494099 0.661304 0.667694 
0.475954 0.531083 0.727577 
0.316449 0.247425 0.906465 
0.310434 1.016816 0.524279 
0.850202 0.177827 0.066906 
0.791497 0.325858 -0.048710 
0.216321 0.441130 0.868822 
0.205973 0.886943 0.651987 
0.446404 1.083496 0.287364 
0.470282 0.026320 0.897523 
0.386244 1.112769 0.333419 
0.403042 0.050558 0.935042 
0.093142 0.384635 0.891059 
0.087728 0.952913 0.591298 
0.146101 1.107173 0.441431 
0.150097 0.166256 0.960842 
0.195468 0.244647 0.934161 
0.195163 1.044526 0.513747 
0.663055 0.448171 0.578129 
0.648435 0.580894 0.502429 
0.596855 0.638606 0.554001 
0.605226 0.466875 0.650328 
0.748843 0.378473 0.413691 
0.736291 0.490814 0.317126 
0.681077 0.501553 0.509179 
0.572707 0.869600 0.353642 
0.615986 0.191124 0.754440 
0.763485 0.482676 0.155673 
0.798706 0.263577 0.332287 
0.698036 0.542395 0.423332 
0.714080 0.420860 0.492731 
0.780767 0.335300 0.350456 
0.738263 0.337249 0.494025 
0.706563 0.575079 0.336891 
0.537808 0.700702 0.607842 
0.535841 0.469382 0.710722 
0.804405 0.333351 0.236360 
0.771051 0.441183 0.234493 
0.840309 0.202288 0.148036 
0.808532 0.243883 -0.120535 
0.603234 0.738738 0.448659 
0.632072 0.325087 0.685204 
0.696149 0.322183 0.587260 
0.669850 0.657880 0.375251 
0.562895 0.614052 0.616916 
0.535836 0.559602 0.673342 
0.197599 0.664034 0.765925 
0.619555 0.651110 0.470763 
0.648953 0.392453 0.628415 
0.109099 0.628798 0.785812 
0.113968 0.715340 0.731089 
0.660521 0.725578 0.228729 
0.721796 0.186844 0.609074 
0.821439 0.040963 -0.191265 
0.593967 0.120388 0.804389 
0.546347 0.946645 0.310666 
0.771686 0.056137 0.577238 
0.661395 0.716076 0.043526 
0.778436 0.228596 0.417585 
0.742053 0.557941 0.134379 
0.701936 0.601952 -0.014609 
0.805765 0.075975 0.461343 
0.174272 0.064114 0.984340 
0.183981 1.162112 0.351905 
0.858343 0.056296 0.254439 
0.738868 0.421496 -0.154535 
0.725959 0.502628 -0.100559 
0.842022 0.071481 0.346855 
0.790556 0.392129 0.033384 
0.665846 0.221632 0.693673 
0.617016 0.791802 0.337984 
0.114993 1.170820 0.303725 
0.094026 0.034652 0.988336 
0.096227 0.102113 0.977837 
0.108024 1.139144 0.364271 
0.621319 0.823319 0.114234 
0.713842 0.047760 0.681295 
0.575250 0.929435 0.195902 
0.642674 0.047554 0.774056 
0.657269 0.735463 0.131766 
0.746751 0.109073 0.609082 
0.610511 0.836448 0.241817 
0.677588 0.131451 0.708252 
0.721426 0.580558 0.066983 
-0.433575 0.449308 0.652730 
-0.357948 0.858096 0.277495 
-0.847603 0.355093 0.240932 
-0.311552 0.311660 0.805529 
-0.229092 0.264837 0.864933 
-0.184786 0.192637 0.906723 
-0.129119 0.121638 0.945253 
-0.317568 0.777527 0.458417 
-0.773274 0.320562 0.437740 
-0.639133 0.640301 0.054494 
-0.280856 0.607683 0.655864 
-0.609121 0.298154 0.641284 
-0.183081 0.592134 0.720436 
-0.624157 0.195340 0.694596 
-0.486884 0.788069 0.047109 
-0.785858 0.478956 0.013403 
-0.202230 0.489235 0.774538 
-0.471539 0.221152 0.762763 
-0.364288 0.907157 0.052493 
-0.903433 0.348717 0.014719 
-0.725454 0.499402 0.233556 
-0.502473 0.730470 0.252848 
-0.143139 0.917288 0.477179 
-0.908184 0.149260 0.451956 
-0.145516 0.407554 0.826952 
-0.388326 0.167206 0.830886 
-0.283587 0.973987 0.072116 
-0.969112 0.266036 0.028576 
-0.086873 1.007820 0.396554 
-1.012468 0.089060 0.367496 
-0.312683 0.094537 0.881769 
-0.065505 0.328757 0.894186 
-0.565228 0.564782 0.393550 
-0.219904 1.018443 0.124047 
-1.006790 0.198936 0.068969 
-0.054151 1.056297 0.368675 
-1.050618 0.048264 0.339393 
-0.197905 0.099811 0.926723 
-0.077122 0.202372 0.932662 
-0.122551 0.048533 0.958155 
-0.419426 0.603896 0.526965 
-0.613928 0.431462 0.521279 
-0.443045 0.692645 0.393416 
-0.697240 0.450402 0.378506 
-0.533304 0.344749 0.656649 
-0.339166 0.529921 0.655787 
-0.488922 0.492676 0.572797 
-0.612597 0.624979 0.171736 
-0.173493 0.968245 0.392421 
-0.959303 0.175730 0.353215 
-0.260564 0.890169 0.389610 
-0.881494 0.264326 0.353440 
[...]
POINT_DATA 2044
SCALARS u float 1
LOOKUP_TABLE default
6.940706
6.871319
6.780374
7.724826
0.954904
5.512732
3.921378
2.580842
2.763620
3.988845
5.565173
6.846623
7.392502
7.105882
6.103356
4.771958
3.461205
3.242043
4.374812
6.049684
8.929814
9.619010
9.396683
8.546026
7.495355
5.018717
3.099966
2.277871
3.449629
5.344842
7.045224
8.260351
8.630479
8.353772
7.847877
5.152814
3.697466
3.095130
3.448803
4.663409
5.800835
6.394695
6.843998
6.172802
5.055247
3.651875
2.657943
2.819879
4.130046
5.750293
8.154040
8.658042
8.496065
7.720999
7.011484
5.369205
3.854751
3.125124
3.756507
5.318753
6.479750
7.881020
8.787137
8.697599
8.023506
6.333258
5.674936
4.785733
3.959304
3.503403
2.800150
2.241119
1.715813
1.410105
1.353857
1.304238
1.346595
1.237714
1.051634
0.997341
1.114227
1.144841
1.184126
1.161298
1.278870
0.961995
1.017548
1.006858
1.252823
2.214252
3.257543
3.833195
4.842068
5.703393
6.493209
0.984867
0.995255
1.023772
1.070372
1.064940
1.013930
1.048956
1.184350
1.541910
2.215551
2.842107
3.652301
4.452139
5.275899
6.135619
0.857519
0.827694
0.837854
0.827660
1.022715
1.179258
1.347384
1.511125
1.900218
2.517764
3.383500
4.366544
5.312389
6.225538
6.927181
3.423838
1.941578
5.145327
5.748480
6.810135
7.179592
7.980980
3.484308
2.086463
2.028599
1.535878
2.753628
2.337198
2.859673
1.565329
3.712713
4.642638
4.236895
1.389545
5.016310
3.098270
1.848652
6.526158
1.665726
6.200930
5.038703
1.224981
5.375790
7.775501
1.349026
7.712171
5.353295
1.649171
1.226644
5.959940
8.046837
1.240753
6.534848
8.385052
7.303803
2.447089
0.832805
2.210978
2.021654
2.855849
3.508250
2.441956
2.040845
1.645099
6.982965
6.061711
1.840598
2.575325
1.728358
3.513526
2.008185
1.713887
4.373604
4.847172
1.883113
1.611280
3.408060
1.737362
5.075908
4.631328
5.193008
1.983420
4.639017
4.073777
1.874548
1.353806
2.769639
2.475398
1.673577
1.305344
3.751089
2.315746
0.739363
6.043018
1.623752
5.631746
1.556398
7.306945
1.336979
2.444626
1.849347
1.743300
6.233694
6.328867
6.773374
1.544428
4.252917
7.190452
1.364086
7.602719
1.432078
1.261020
4.368264
6.869213
1.285184
1.266025
6.339271
1.977860
1.211081
1.599038
1.820839
3.128979
2.708553
1.591310
3.539938
2.008799
3.822691
4.250956
1.340119
2.397737
3.737281
2.902871
1.279549
2.634637
1.791767
4.440749
3.648545
5.774745
7.651484
2.005742
2.250092
2.557155
0.608596
1.921748
1.843127
1.968047
1.057133
2.114879
1.446690
1.770197
0.974540
2.457328
7.630937
1.829708
4.785977
2.363713
2.556046
3.690675
3.180169
3.973121
3.187805
1.110297
7.807595
4.453777
6.847841
5.751316
3.889957
5.521698
2.225582
2.111109
7.465814
1.059692
1.109292
6.939731
2.592705
1.881353
4.266609
1.670549
1.731862
2.321454
2.606793
2.066103
3.590732
2.870384
1.554748
2.471402
2.078210
1.655039
1.425808
1.155530
1.538135
2.054430
5.646725
1.734044
2.084471
1.238897
1.301114
4.219779
5.065826
1.535151
2.001793
2.450041
3.434660
4.251650
3.759041
1.474483
0.804313
1.645451
1.721514
1.843632
2.610301
3.169750
2.612514
1.546408
1.260810
4.252540
2.321984
2.371417
4.180554
3.548749
1.322243
1.275183
1.114001
3.114653
3.213795
3.299609
3.627602
2.630982
2.584822
3.257802
5.361736
1.903869
1.043901
0.404662
0.945681
5.112488
5.348277
2.784526
3.377174
3.088413
4.027262
0.218931
0.815482
4.853978
4.226032
3.015843
2.163815
2.016818
2.320554
2.281059
1.565699
3.500633
2.699705
5.749141
5.085057
5.924894
5.440026
3.755880
4.691540
2.223867
1.765087
2.239613
1.657653
1.463586
2.213147
2.623983
1.851628
5.029080
4.656519
1.295797
0.982104
1.683592
4.411307
3.440913
2.884679
2.301950
2.974822
2.395657
3.739064
2.780337
3.248990
2.744469
1.721988
1.882087
3.802241
3.901349
4.201134
3.938583
2.860309
3.007324
3.753187
0.250459
0.878066
2.435049
2.183915
3.419232
3.206606
2.575014
2.978591
2.889378
1.678992
3.936498
4.146743
2.408027
2.807011
1.499422
2.488167
2.793565
2.657974
2.930674
4.524255
4.780560
6.206750
3.569406
3.445167
6.428626
6.403788
1.203908
1.003224
0.445151
0.986194
0.590525
0.720421
2.021948
2.124908
1.344020
0.838140
4.772151
4.280280
1.408717
1.388689
1.116273
1.352026
1.638903
1.045941
5.389783
5.810708
4.199824
4.750786
2.059665
0.725135
0.521048
1.233160
0.933949
0.911627
0.549530
0.791207
0.388596
0.266163
1.136560
1.059949
1.393345
5.527255
5.558834
1.091327
1.007755
1.008886
4.148039
3.926943
0.445136
2.056771
1.749447
1.795929
1.934685
4.310267
4.058514
1.577771
1.213862
6.864587
7.128457
2.870138
3.351499
4.675121
5.222418
1.085367
0.966925
7.998988
8.475091
5.701317
6.423864
0.998988
0.914900
1.280474
8.115464
9.049785
6.024102
6.840092
0.995636
0.959191
2.013036
1.758633
3.079255
2.693052
1.328303
1.650821
1.320967
0.857382
5.793770
6.418140
5.377592
5.795652
2.133273
1.523036
3.933144
3.822093
5.077074
4.992489
4.531500
4.790981
3.294272
3.688387
6.406479
6.215016
1.342777
1.108042
4.883790
4.911718
4.415614
4.600681
3.779516
4.395372
1.858623
2.623102
6.146599
6.361168
2.340272
2.602939
3.150249
3.909127
7.053838
7.328976
6.820177
7.750508
1.126187
2.191539
7.015042
6.429697
1.069113
0.983356
5.637555
5.563201
3.646142
4.439125
4.737281
5.511806
7.676276
7.375347
7.736075
8.792879
8.376600
7.554277
1.966005
1.648219
1.908921
2.238012
1.711916
1.293879
1.318017
3.397622
3.705012
1.344095
1.571739
1.495854
1.605466
1.580617
2.040941
1.559202
2.819198
2.310188
1.257910
1.231531
3.265844
2.904379
2.685708
2.005830
1.086913
1.316045
1.347814
0.743374
2.158287
2.462698
1.452551
2.012341
2.321360
2.262040
3.943625
3.389370
1.574306
1.858528
1.783740
1.623362
1.484169
1.432097
6.852563
7.730368
1.030401
0.943888
1.189050
1.216143
2.890813
2.966504
8.011224
7.135797
8.758657
7.678304
1.078647
1.871150
2.122777
2.710231
2.434314
1.475982
1.910150
2.230548
2.673826
2.692133
0.928525
0.782395
0.847050
0.813993
3.774485
2.030139
2.031387
0.901429
0.998642
2.031138
3.339251
4.981792
4.798393
2.414125
2.360197
6.143506
1.623446
6.330986
0.767029
0.664765
1.960674
4.628447
0.540702
1.872687
1.413832
3.123350
3.327280
3.509893
1.601162
1.326257
2.762340
3.178477
1.026572
2.092786
1.177321
2.000559
2.741626
4.432299
3.935133
1.026615
2.973828
1.075250
1.852241
3.143874
5.279454
3.196087
4.789768
3.445220
2.146282
5.268957
4.584886
2.942436
1.755448
1.453351
2.751906
2.014782
2.557152
2.872235
4.056147
3.003770
1.056409
2.174254
4.157416
2.002706
2.638225
1.891170
1.480134
0.249306
2.867505
1.011176
2.443387
3.480518
2.668749
2.900473
1.192119
1.158508
1.852655
1.205356
2.326174
1.074291
1.936353
5.958787
5.037773
1.249221
1.377894
1.321185
2.118122
1.188819
3.411273
3.320536
1.550552
0.706474
1.394862
1.041571
1.703479
0.901689
3.813232
1.289915
2.705781
1.302925
1.018210
3.031649
4.243984
0.940446
1.254337
2.543091
4.966745
4.118375
3.871762
4.835962
5.019511
3.180837
4.492352
5.487393
1.635731
1.219186
4.485702
3.639643
4.821966
4.362959
5.336279
2.724345
4.271218
3.462756
2.881068
2.439990
5.108505
2.877871
5.636448
2.576292
1.789917
3.856958
3.839137
1.400658
3.473605
5.273740
1.105252
0.979146
1.241086
6.686322
1.479663
5.381699
7.261874
1.337484
5.413557
1.091366
0.932819
6.068358
4.564625
0.948508
2.710267
3.161997
4.506985
1.899591
1.785502
5.773536
0.911690
6.209268
0.863691
5.739219
0.201941
7.212524
1.033831
6.329585
1.091389
1.975808
7.266819
0.761664
1.200743
6.354251
3.558694
4.774061
1.159777
3.144466
2.480431
2.028419
2.984420
2.146827
3.161372
3.099694
2.828485
3.145209
3.129697
1.883032
1.091356
1.612357
5.028820
3.974445
0.895771
5.510202
3.722554
3.896176
4.550406
1.319102
5.632699
3.696214
3.039016
6.405969
2.958760
4.714774
2.255366
1.979736
5.599602
3.530345
4.895175
3.798622
5.431800
2.564991
1.681774
1.842342
2.690496
2.572867
2.112637
3.097429
1.186231
1.722850
6.324343
6.040909
5.247086
2.873389
1.619473
5.097083
1.336180
3.190161
2.864626
5.946328
7.199639
4.623897
1.202398
1.180058
4.357556
4.482590
3.898155
2.552395
1.197091
6.966399
3.430893
2.843132
3.048230
2.364937
0.929644
3.277348
6.582332
3.307691
5.526705
5.010456
4.391977
4.455235
2.680649
3.151242
4.808275
2.416128
2.108661
1.649233
2.011037
4.416702
2.925957
4.106028
2.835438
1.717892
1.859417
5.102272
1.165001
3.108442
5.414433
7.293613
3.347925
5.315464
3.379681
1.418913
5.227105
1.688752
2.136228
7.365211
1.976859
3.159888
1.392998
1.719958
4.074906
6.770389
2.385022
3.052208
7.933859
3.240185
4.173244
4.062898
5.686843
4.159648
3.539257
1.650792
3.805983
2.351096
3.497348
0.953564
1.319730
6.607259
7.362655
3.311589
1.177398
4.589929
2.392305
3.166327
3.129770
2.842766
4.583597
6.890096
4.474160
4.002523
1.879789
1.433930
2.626911
4.710605
2.837907
3.974014
5.577746
2.582764
6.530592
4.543916
2.614329
3.220198
1.317818
2.317764
3.825186
5.554890
2.801282
2.600116
2.098032
2.413821
1.042001
1.587267
3.954739
4.452843
1.115518
4.977500
5.818196
2.538790
5.368813
6.794674
2.738715
3.097116
5.424770
3.323958
2.508711
3.253461
2.535799
1.324982
2.819309
2.277134
1.129738
1.630065
3.410974
4.895487
4.137361
6.557834
3.359089
4.760810
5.427016
7.438148
8.588129
1.202271
2.013762
2.692414
3.948685
2.748247
4.190652
1.203202
5.532720
1.543328
4.494374
6.599387
3.853342
2.855710
4.522118
5.662416
2.602176
2.648532
1.349529
1.046876
3.079827
5.475512
7.479697
3.147088
5.654217
3.126319
4.132979
4.474865
5.587467
6.988696
6.640604
3.208219
3.913749
1.118234
4.242783
2.519355
4.350857
3.389663
2.802757
6.662079
7.329935
2.635983
1.246467
1.218034
3.934512
3.645575
7.491526
2.769084
5.959176
3.905897
6.588938
6.320424
8.289099
2.304913
4.932293
7.904110
3.411208
7.682748
2.313720
3.329452
3.623330
4.574075
3.504532
5.741748
6.023616
2.587561
1.927335
1.632808
2.145445
2.678736
2.633366
5.094532
1.982345
3.240554
1.820636
3.242359
5.306587
1.418024
3.363113
3.482303
0.879134
1.431443
3.398184
1.722837
1.764502
5.887082
3.711072
4.983606
5.231556
4.246508
2.718117
6.333114
4.356740
6.037882
3.061361
6.088533
3.306333
3.415309
3.732085
2.510264
2.017895
7.711967
1.115032
1.485175
4.821513
2.302928
3.938372
2.281770
4.491880
1.593084
3.199069
2.562319
4.882789
5.407239
4.540470
1.885109
2.188806
2.061324
7.790268
6.763702
2.722922
2.552947
1.157364
6.458784
2.389357
2.595089
2.490669
0.973276
1.764747
1.388587
2.191933
1.115885
6.026013
3.513943
3.539257
5.429671
4.352016
2.794053
6.596953
3.748534
4.563900
2.698123
4.472003
3.296347
3.169010
3.925297
2.692004
4.780029
6.778932
3.950139
1.727388
1.828538
3.794844
4.107162
5.704793
2.189378
3.295049
3.125698
3.725656
2.861974
1.279504
5.845669
2.554390
4.182290
2.176850
6.561320
3.058558
2.878911
4.620720
1.949549
4.711839
0.849832
3.478114
4.276725
2.371896
6.024487
1.947863
1.296028
5.820589
3.137282
1.221904
1.744517
2.748433
4.226285
3.647263
1.354508
3.599127
5.573353
5.185383
7.143411
3.482096
7.915062
6.104010
5.728497
3.030535
2.186205
4.599515
4.312041
8.073614
3.868469
4.033688
4.152921
1.072675
2.927346
5.172488
2.529156
3.804904
3.692268
1.478427
1.291272
4.675359
1.621020
0.940520
3.242971
2.697881
1.674328
1.560770
0.503714
0.448165
1.674774
3.828229
4.331909
0.623801
2.610803
1.471181
1.449595
0.822031
1.602565
0.851856
3.508284
1.814827
2.947043
3.855759
2.276438
1.333028
1.431120
0.394421
0.584400
1.355240
0.647273
2.401645
4.817859
4.285263
1.301123
1.820021
1.248065
0.831640
1.023200
1.077792
0.985765
0.971402
0.797411
0.732233
0.768544
0.516941
1.316382
1.338294
1.206477
0.466368
0.918045
0.876067
1.804039
1.127256
1.076785
1.092646
0.692904
0.732547
0.444674
0.978360
0.528337
0.450518
0.148877
0.667167
3.151313
3.108874
3.933227
0.672923
2.042915
1.894142
2.307654
2.404828
2.306917
1.215209
1.368904
2.376997
3.500642
3.265101
4.504561
2.023780
2.309420
4.356762
0.987805
0.664242
0.826372
0.928478
0.297760
2.154002
2.256078
1.797034
2.428799
2.775457
3.629935
3.677279
3.655837
2.515964
3.133825
2.312758
3.477930
1.690505
2.665163
1.498462
1.072801
1.093088
2.337202
2.202212
1.504557
1.081467
0.672999
0.780589
1.752762
1.830390
3.256379
3.181448
3.595946
3.008427
3.693288
2.117861
2.281461
2.540757
2.954462
2.555448
1.683576
2.506496
2.615499
2.077302
1.213159
1.541866
3.528853
4.278129
0.812349
0.426419
0.380757
0.616946
0.885695
0.368028
1.004553
0.631817
0.907636
5.178602
2.633942
3.584864
5.452739
0.706193
1.335946
1.208389
1.154409
1.074163
0.823202
1.137849
0.797670
0.386539
4.357972
5.396572
2.759927
1.339935
1.922200
4.250711
1.451817
1.362321
1.780564
0.888183
0.812997
4.178111
2.172160
0.955519
1.543223
1.231617
0.984156
0.281257
1.226044
1.491456
1.047105
2.828851
2.249025
1.536390
2.246012
1.121188
4.878867
4.234057
2.979840
1.486514
0.799503
4.859801
2.085604
1.159622
3.779234
5.489615
0.641173
2.102191
1.589422
4.729798
0.857608
1.435094
0.653425
2.687692
4.047096
4.018075
1.117152
5.752885
4.696681
5.299914
6.453616
1.992723
1.062442
0.990169
0.956732
0.608322
1.120530
1.001629
1.156444
1.905295
1.075544
2.631268
4.282117
2.428051
4.425305
2.700292
2.486229
1.243192
3.875398
3.405620
2.391691
0.606126
1.401283
1.110460
1.726127
2.304754
2.981899
1.117293
2.482351
1.165580
2.735232
1.187201
0.662523
0.511120
1.859001
2.026233
2.147081
3.618421
2.538163
2.278703
1.406356
2.323296
0.584468
0.880917
1.562425
1.315091
1.400207
1.268950
0.786009
0.912714
0.923580
1.402591
1.939574
0.705829
0.366833
1.384357
2.018274
0.229828
0.773103
1.575206
0.914389
4.745363
2.562465
0.203195
4.505909
4.020585
1.983258
3.776492
3.287287
3.070361
3.120304
4.458700
4.073930
2.802693
4.856900
1.977743
4.258614
0.953117
5.015421
3.537380
3.157486
6.220566
4.375874
4.359608
6.998240
5.496734
1.036504
0.918693
0.908564
0.808790
0.870705
0.907202
1.025680
1.275524
1.377778
2.121578
3.188259
0.834723
2.911343
1.470482
1.153977
0.163751
4.320547
4.821396
3.636422
6.061834
5.753654
4.099788
6.429689
4.645789
3.344209
4.100572
3.878702
2.531901
1.966361
3.490911
3.323890
2.349659
4.033415
2.463540
1.662897
3.591682
0.771865
0.475209
1.204382
0.983585
1.109419
1.294984
1.615802
2.275517
1.935807
0.816181
2.329770
1.793353
0.724955
6.317813
0.654807
0.885466
1.191389
0.595384
1.039190
0.915657
1.304077
0.878295
1.750972
0.588058
1.873101
1.396021
1.028911
1.121425
0.741256
1.836363
0.950139
2.599686
2.198305
2.243611
5.216183
0.741813
1.016390
1.462257
1.151110
0.747871
1.294606
2.570124
2.018515
2.569569
1.805774
1.993301
0.540183
0.687642
0.984648
0.727132
2.177252
2.534782
2.411952
1.079984
0.905813
1.409342
0.818959
3.627349
2.101221
3.798249
2.799257
2.671802
2.372832
1.312806
1.129298
1.078135
1.290254
1.330574
1.617161
1.202156
3.065966
2.744046
2.328335
3.407721
4.560273
1.684368
1.856139
1.401618
2.263094
1.741208
3.823907
2.922028
3.870599
2.076205
3.789795
2.648280
3.693195
2.522597
2.848395
2.193249
2.209867
3.203349
1.676460
2.613688
2.029030
2.155849
1.429014
1.498865
2.056503
2.808098
2.193446
2.362257
2.385354
3.911956
1.804405
1.931459
2.117676
1.433179
2.109777
1.446610
1.056111
2.963915
1.181660
1.206432
1.960770
1.718913
3.261926
1.230971
1.896746
2.636122
1.231135
2.654024
4.298295
0.997343
1.147411
0.807367
0.080643
2.189620
1.466457
4.813606
5.328916
4.054657
3.338058
1.964638
2.168053
1.198001
2.376832
0.866334
5.288513
2.912138
2.322794
4.079472
1.301219
1.121138
1.075786
0.931877
2.118904
1.541206
5.312148
2.018234
3.001713
3.244226
4.026094
0.932026
1.447593
1.112566
3.185217
3.101312
2.763129
2.066048
2.397968
1.503305
1.880350
1.341886
1.640324
1.103492
1.100680
3.212641
4.104063
3.530962
2.107838
2.788614
3.232956
2.639707
1.816689
2.023225
1.907488
1.992770
1.307043
2.912894
1.436100
3.468678
4.148869
4.643974
4.274076
4.783737
2.100282
0.843675
2.476049
1.854644
1.329862
3.929776
4.160651
5.071894
3.087569
3.906670
3.920671
2.286663
2.639633
0.851714
0.754961
0.659447
1.031711
0.730729
0.611949
2.523129
2.532103
2.174929
1.959069
2.970114
2.297780
2.300484
2.352623
2.207931
2.337391
3.119327
3.932450
2.478847
1.688206
1.128765
1.440239
1.536174
1.196685
1.039783
1.260589
1.856338
4.699464
2.448351
1.042939
1.054641
0.944474
5.867553
2.661220
1.515688
2.501756
2.717783
2.579605
2.014145
1.764161
3.026401
2.227142
3.640554
3.062310
1.872844
2.248889
2.630024
2.991452
2.692872
3.221252
4.210039
2.555195
4.687256
4.062331
5.135198
5.098268
1.586952
1.249761
4.069411
5.427489
4.514533
5.986159
5.546003
3.671164
2.692281
3.032422
1.190688
1.318287
1.282642
1.296428
1.439388
1.205309
1.228321
1.034751
4.566134
4.834862
4.719940
1.893447
4.509133
3.897940
4.365270
1.952862
1.774740
1.459824
3.580313
1.470383
1.090170
2.309548
1.487342
1.300666
3.621287
3.748917
2.598228
2.092003
1.568771
1.021925
2.115427
1.691931
6.413568
6.242602
2.031261
1.504638
3.425318
4.022486
3.477055
3.617571
2.888567
1.758914
3.717155
3.193227
2.356464
0.877698
0.950996
0.685114
2.891811
2.925257
1.083120
2.284303
1.601112
2.762630
3.567406
3.356318
1.750987
1.827042
3.541830
3.873995
2.970710
3.352375
4.387361
4.648910
3.930263
4.298454
1.703128
1.880032
1.971725
1.958991
0.921313
2.344241
2.092292
1.620527
4.393178
3.755409
2.761713
5.012394
4.972614
1.810401
1.378727
2.023503
1.929486
1.345400
1.139180
1.079646
2.540528
0.749689
2.742916
1.818759
1.544850
2.470386
2.103256
1.602875
1.680167
0.924563
0.869210
1.449569
3.299078
2.752552
5.116369
0.701547
2.711549
1.981788
2.100456
3.229258
0.830402
0.865403
0.936816
1.525121
1.388380
1.646211
1.238881
0.906101
1.215220
1.036539
1.727749
1.474746
1.974351
3.020570
3.189300
5.470481
4.813788
3.494220
1.541401
5.940553
5.319562
4.477357
1.326886
2.227067
1.549718
2.305843
1.960600
6.053682
5.037549
2.342376
1.924670
4.382028
2.497880
1.931571
2.030724
1.601577
1.148181
4.985051
5.219231
3.745851
1.744404
1.033924
1.205353
0.868436
0.660875
1.701248
1.309394
2.274591
1.174786
1.170049
3.097217
2.616129
3.382128
1.440465
1.904492
2.081950
2.301675
2.214160
2.334222
3.639798
3.695216
1.948327
3.342452
3.106512
0.438666
0.244069
0.692894
0.565907
0.278261
0.304406
0.231335
0.651225
0.064019
0.607626
1.473522
1.342334
2.065559
0.449011
1.149716
0.350946
0.749163
0.968504
0.957459
1.958892
1.880242
1.600941
1.337205
1.041562
0.611652
0.972382
0.696973
0.979200
0.871575
0.499554
0.257188
0.327406
0.336653
1.002885
0.727274
1.478974
0.855534
1.847114
1.795491
0.513870
0.183322
0.631636
0.337500
0.428984
0.343871
0.295921
1.068783
0.584262
1.682713
2.389005
1.714213
2.139583
1.818602
1.406700
2.067801
0.411134
0.608413
0.632935
0.812368
0.408760
0.825152
0.792160
1.308776
0.751379
1.457145
0.573603
0.813630
2.294002
2.071790
0.819946
0.915997
0.997223
0.598368
2.463994
1.951798
0.918343
1.232821
2.330232
1.675699
2.015623
1.862758
0.454693
1.083343
2.068200
1.118967
2.150346
1.389028
2.764015
2.427062
0.202309
0.389976
2.868718
2.228566
