# vtk DataFile Version 2.0
Unstructured Grid Example
ASCII
DATASET UNSTRUCTURED_GRID
POINTS 2044 float
0.960015 -0.013868 -0.050223 
0.015561 1.039294 0.049411 
-1.038495 -0.024629 0.045034 
0.021857 -0.955371 -0.053607 
0.006850 -0.005480 0.997832 
0.961928 -0.113516 -0.037080 
0.954508 -0.212077 -0.019946 
0.940796 -0.308445 -0.002437 
0.917694 -0.402422 0.016000 
0.885323 -0.493843 0.030154 
0.844569 -0.580895 0.044274 
0.790703 -0.660750 0.056477 
0.733383 -0.731836 0.059927 
0.664621 -0.792619 0.056772 
0.585092 -0.845731 0.047545 
0.499850 -0.887151 0.034671 
0.409735 -0.918263 0.017589 
0.317294 -0.942395 0.000272 
0.221228 -0.954854 -0.018923 
0.121785 -0.958605 -0.037069 
-0.075549 -0.945699 -0.064703 
-0.174864 -0.928206 -0.071492 
-0.274335 -0.905633 -0.070848 
-0.369853 -0.877182 -0.064763 
-0.465071 -0.840231 -0.057029 
-0.555624 -0.799846 -0.035429 
-0.642754 -0.749930 -0.016058 
-0.723855 -0.693752 0.002399 
-0.797214 -0.628387 0.021063 
-0.864720 -0.559286 0.037928 
-0.922271 -0.480849 0.052220 
-0.969324 -0.398148 0.061687 
-1.003783 -0.309333 0.064128 
-1.027130 -0.214766 0.060940 
-1.040132 -0.119386 0.055116 
-1.025117 0.074106 0.030162 
-1.001722 0.169720 0.011923 
-0.969863 0.264385 -0.004474 
-0.930144 0.357340 -0.019583 
-0.877830 0.445439 -0.035450 
-0.819214 0.528957 -0.046417 
-0.755675 0.609503 -0.052359 
-0.684592 0.684995 -0.056553 
-0.610466 0.756676 -0.050719 
-0.532461 0.820150 -0.040325 
-0.449394 0.879403 -0.026526 
-0.361508 0.931780 -0.011034 
-0.270008 0.972692 0.007262 
-0.178013 1.006956 0.023469 
-0.081399 1.029977 0.038394 
0.111493 1.042556 0.059395 
0.206275 1.031856 0.063077 
0.300547 1.007032 0.062039 
0.389904 0.970815 0.055523 
0.474538 0.926827 0.048739 
0.551398 0.869091 0.033890 
0.622996 0.802917 0.017498 
0.688226 0.729866 -0.000003 
0.743823 0.645752 -0.016810 
0.796136 0.561403 -0.035363 
0.842445 0.472808 -0.046895 
0.877775 0.379873 -0.058548 
0.907081 0.284802 -0.066315 
0.931420 0.185835 -0.065200 
0.950085 0.086627 -0.060005 
0.961751 -0.008582 0.049027 
0.954248 -0.005069 0.148682 
0.939755 -0.002992 0.248494 
0.915207 -0.002348 0.346312 
0.877808 -0.003176 0.438655 
0.832405 -0.002936 0.529253 
0.777984 -0.003123 0.614016 
0.713950 -0.006196 0.693751 
0.642813 -0.004993 0.763943 
0.566727 -0.005628 0.828645 
0.482098 -0.006107 0.881217 
0.393113 -0.006992 0.926048 
0.299561 -0.006269 0.960378 
0.203051 -0.005836 0.982047 
0.105262 -0.006046 0.995355 
0.007780 0.092426 0.990784 
0.007269 0.188805 0.975783 
0.007035 0.283551 0.951398 
0.007044 0.375658 0.919213 
0.006126 0.462636 0.876250 
0.003386 0.547205 0.830280 
0.002267 0.625754 0.776606 
0.001920 0.701476 0.714549 
0.002209 0.770618 0.645792 
0.000856 0.834210 0.576325 
0.003156 0.890472 0.500843 
0.005643 0.934161 0.417007 
0.006691 0.975736 0.331531 
0.008659 1.006901 0.241519 
0.011247 1.029227 0.147915 
-0.090816 -0.004018 0.990843 
-0.186953 -0.002656 0.976858 
-0.281804 -0.000976 0.952361 
-0.373851 0.000904 0.919005 
-0.461778 0.001680 0.879429 
-0.546249 0.002174 0.832140 
-0.625744 0.001042 0.777766 
-0.700104 -0.000035 0.715856 
-0.770062 -0.000588 0.648671 
-0.833502 -0.001579 0.576376 
-0.888649 -0.002205 0.497342 
-0.936642 -0.003563 0.414603 
-0.975385 -0.006743 0.327556 
-1.005944 -0.011207 0.236729 
-1.028723 -0.017136 0.142203 
0.005540 -0.103810 0.993925 
0.004193 -0.201694 0.981177 
0.003585 -0.297233 0.958251 
0.001346 -0.390385 0.923419 
0.000495 -0.480870 0.880005 
-0.002986 -0.564995 0.826294 
-0.004344 -0.643155 0.764830 
-0.002690 -0.715843 0.696111 
-0.003048 -0.778516 0.617549 
-0.002232 -0.831725 0.531852 
0.001739 -0.878191 0.439646 
0.003584 -0.912754 0.343053 
0.007113 -0.936112 0.245090 
0.010528 -0.951076 0.145322 
0.015940 -0.958103 0.046369 
0.767916 0.436707 0.427441 
0.351189 0.361205 0.859595 
0.348236 0.878179 0.419328 
0.876565 0.315242 0.264018 
0.909542 0.262617 0.179160 
0.926647 0.200980 0.152631 
0.932456 0.189917 0.068564 
0.526171 0.802540 0.351126 
0.533806 0.310471 0.783541 
0.284512 0.670868 0.695089 
0.718743 0.626599 0.272770 
0.728779 0.277825 0.604604 
0.741573 0.634209 0.170698 
0.764383 0.176203 0.597182 
0.218751 0.523614 0.824326 
0.217687 0.822085 0.567963 
0.817039 0.501213 0.172518 
0.824786 0.201485 0.479854 
0.144394 0.407483 0.897195 
0.143928 0.910567 0.462971 
0.415866 0.753607 0.544221 
0.416092 0.506027 0.756526 
0.428744 0.925764 0.206088 
0.435994 0.145372 0.888764 
0.860544 0.426579 0.104220 
0.880543 0.170808 0.372983 
0.099525 0.336113 0.932777 
0.099052 0.951245 0.391744 
0.290529 0.992417 0.173791 
0.293286 0.105662 0.954837 
0.894832 0.338994 0.026964 
0.915782 0.090463 0.302672 
0.576198 0.573066 0.585203 
0.093056 0.271716 0.953264 
0.093109 0.978862 0.330748 
0.234612 1.013734 0.147454 
0.234496 0.078828 0.971994 
0.941338 0.104389 0.176432 
0.918278 0.260596 0.005468 
0.950095 0.090317 0.079547 
0.663091 0.416751 0.609833 
0.654991 0.620288 0.424637 
0.533579 0.718833 0.475780 
0.537446 0.444082 0.712317 
0.757185 0.542797 0.317680 
0.761397 0.335837 0.520726 
0.708386 0.492789 0.480885 
0.396259 0.638546 0.671028 
0.340805 0.176021 0.925781 
0.336631 0.959613 0.241781 
0.399505 0.904116 0.323585 
0.404842 0.262409 0.876846 
0.344374 0.717600 0.623660 
0.344669 0.591844 0.732092 
0.479510 0.780156 0.458731 
0.481684 0.415639 0.768434 
0.284732 0.456107 0.840249 
0.281998 0.846129 0.507458 
0.483018 0.864480 0.286065 
0.491311 0.236820 0.837868 
0.315383 0.523744 0.790712 
0.315542 0.786316 0.565003 
0.241800 0.395588 0.880979 
0.240080 0.894659 0.452774 
0.832916 0.427377 0.269796 
0.852960 0.262268 0.382270 
0.444212 0.336382 0.827693 
0.439932 0.846841 0.388320 
0.383231 0.821327 0.480616 
0.384845 0.431941 0.812627 
0.111185 0.563350 0.818776 
0.108734 0.813826 0.598268 
0.215339 0.753810 0.640021 
0.216202 0.608418 0.768769 
0.085049 0.479254 0.866386 
0.081910 0.875365 0.523395 
0.655170 0.293064 0.685842 
0.646134 0.705379 0.308622 
0.501843 0.899350 0.118205 
0.512706 0.067146 0.860215 
0.190635 0.933455 0.402597 
0.191547 0.342410 0.914035 
0.228009 0.990518 0.248535 
0.230185 0.181009 0.956780 
0.448353 0.675901 0.608226 
0.433996 0.565199 0.707109 
0.276873 0.283826 0.915393 
0.275476 0.941031 0.348147 
0.910251 0.197055 0.254472 
0.887323 0.343679 0.139305 
0.182527 0.474525 0.860193 
0.180123 0.864403 0.523514 
0.429651 0.945375 0.110771 
0.435198 0.050122 0.902168 
0.363080 0.972923 0.142601 
0.366983 0.076883 0.931631 
0.068332 0.413505 0.901331 
0.067074 0.915702 0.461519 
0.118838 1.004898 0.254550 
0.119766 0.190618 0.970901 
0.166657 0.269719 0.944563 
0.166586 0.970204 0.332239 
0.623685 0.487257 0.605451 
0.620288 0.606093 0.499863 
0.560151 0.653966 0.523729 
0.562096 0.503487 0.656690 
0.736761 0.413602 0.504195 
0.739650 0.514876 0.398252 
0.651360 0.532545 0.534317 
0.561436 0.814171 0.258507 
0.571491 0.220747 0.787416 
0.798556 0.498573 0.268821 
0.807095 0.298468 0.460262 
0.681526 0.565096 0.454440 
0.685254 0.453866 0.553558 
0.780822 0.369470 0.462199 
0.712139 0.373181 0.573171 
0.704774 0.592003 0.373097 
0.494047 0.706327 0.538279 
0.493590 0.506111 0.708655 
0.825306 0.364579 0.370024 
0.789843 0.466443 0.344139 
0.883066 0.231534 0.321000 
0.918275 0.260462 0.091395 
0.577788 0.733057 0.391624 
0.584488 0.362914 0.720619 
0.658901 0.357963 0.648291 
0.652791 0.664698 0.370293 
0.519512 0.637744 0.582757 
0.492198 0.588998 0.649835 
0.180186 0.688787 0.712348 
0.599951 0.666848 0.449305 
0.606781 0.431111 0.661575 
0.099137 0.656346 0.751347 
0.100834 0.734302 0.680777 
0.678784 0.701671 0.223898 
0.692818 0.213881 0.674894 
0.954343 0.072870 0.004296 
0.547328 0.145903 0.825520 
0.536264 0.858571 0.190113 
0.749293 0.077961 0.644202 
0.723019 0.677038 0.076167 
0.781358 0.258056 0.529116 
0.773641 0.564287 0.228446 
0.779045 0.589968 0.082046 
0.802874 0.090632 0.559888 
0.146395 0.084749 0.985806 
0.148650 1.027108 0.151612 
0.890006 0.072563 0.389065 
0.861960 0.429021 0.020488 
0.828904 0.502086 0.046880 
0.855286 0.089417 0.466416 
0.858031 0.408618 0.191437 
0.621284 0.254144 0.736092 
0.609975 0.758841 0.281232 
0.073217 1.036858 0.117184 
0.068345 0.054670 0.994461 
0.069795 0.122626 0.986974 
0.072536 1.024450 0.183534 
0.658964 0.757964 0.084519 
0.680489 0.068727 0.724977 
0.585646 0.833709 0.103575 
0.601298 0.069016 0.797628 
0.697956 0.700375 0.138509 
0.718317 0.132599 0.671583 
0.621114 0.780294 0.183703 
0.636598 0.157835 0.750641 
0.778409 0.575706 0.163594 
-0.443018 0.456548 0.741683 
-0.370228 0.862214 0.324349 
-0.859776 0.369565 0.315854 
-0.326626 0.318685 0.868343 
-0.247066 0.275324 0.912311 
-0.207671 0.202910 0.943574 
-0.153442 0.130923 0.970303 
-0.319887 0.788806 0.505110 
-0.787817 0.320583 0.500306 
-0.669987 0.670259 0.225729 
-0.285188 0.623673 0.707488 
-0.624007 0.289207 0.704101 
-0.183618 0.615523 0.751309 
-0.636573 0.190121 0.732982 
-0.523002 0.811946 0.171739 
-0.811432 0.521160 0.163908 
-0.205882 0.512248 0.816501 
-0.490576 0.218593 0.822332 
-0.405341 0.900340 0.116807 
-0.899475 0.401724 0.108031 
-0.747764 0.513495 0.363843 
-0.514209 0.748929 0.368325 
-0.151648 0.898375 0.436005 
-0.896260 0.153070 0.430145 
-0.158021 0.432285 0.870296 
-0.414065 0.162724 0.877946 
-0.330232 0.943574 0.087016 
-0.942441 0.326155 0.076901 
-0.106483 0.965430 0.309143 
-0.966510 0.106991 0.302392 
-0.341775 0.092544 0.920337 
-0.085379 0.347828 0.922386 
-0.579291 0.579187 0.524978 
-0.265784 0.970746 0.094203 
-0.968039 0.260913 0.081407 
-0.078172 0.990533 0.258297 
-0.989214 0.076805 0.251494 
-0.225036 0.106960 0.957086 
-0.100633 0.218949 0.960268 
-0.148670 0.057450 0.979402 
-0.425642 0.621424 0.622556 
-0.623755 0.428438 0.621235 
-0.453675 0.712392 0.494116 
-0.713459 0.455385 0.490652 
-0.544244 0.344071 0.738176 
-0.344677 0.546931 0.734602 
-0.498815 0.499687 0.673932 
-0.639142 0.650404 0.335298 
-0.182626 0.935948 0.343259 
-0.933870 0.183146 0.334150 
-0.269870 0.881661 0.390647 
-0.879645 0.270744 0.382243 
[...]
POINT_DATA 2044
SCALARS u float 1
LOOKUP_TABLE default
6.940706
6.871319
6.780374
7.724826
0.954904
5.512732
3.921378
2.580842
2.763620
3.988845
5.565173
6.846623
7.392502
7.105882
6.103356
4.771958
3.461205
3.242043
4.374812
6.049684
8.929814
9.619010
9.396683
8.546026
7.495355
5.018717
3.099966
2.277871
3.449629
5.344842
7.045224
8.260351
8.630479
8.353772
7.847877
5.152814
3.697466
3.095130
3.448803
4.663409
5.800835
6.394695
6.843998
6.172802
5.055247
3.651875
2.657943
2.819879
4.130046
5.750293
8.154040
8.658042
8.496065
7.720999
7.011484
5.369205
3.854751
3.125124
3.756507
5.318753
6.479750
7.881020
8.787137
8.697599
8.023506
6.333258
5.674936
4.785733
3.959304
3.503403
2.800150
2.241119
1.715813
1.410105
1.353857
1.304238
1.346595
1.237714
1.051634
0.997341
1.114227
1.144841
1.184126
1.161298
1.278870
0.961995
1.017548
1.006858
1.252823
2.214252
3.257543
3.833195
4.842068
5.703393
6.493209
0.984867
0.995255
1.023772
1.070372
1.064940
1.013930
1.048956
1.184350
1.541910
2.215551
2.842107
3.652301
4.452139
5.275899
6.135619
0.857519
0.827694
0.837854
0.827660
1.022715
1.179258
1.347384
1.511125
1.900218
2.517764
3.383500
4.366544
5.312389
6.225538
6.927181
3.423838
1.941578
5.145327
5.748480
6.810135
7.179592
7.980980
3.484308
2.086463
2.028599
1.535878
2.753628
2.337198
2.859673
1.565329
3.712713
4.642638
4.236895
1.389545
5.016310
3.098270
1.848652
6.526158
1.665726
6.200930
5.038703
1.224981
5.375790
7.775501
1.349026
7.712171
5.353295
1.649171
1.226644
5.959940
8.046837
1.240753
6.534848
8.385052
7.303803
2.447089
0.832805
2.210978
2.021654
2.855849
3.508250
2.441956
2.040845
1.645099
6.982965
6.061711
1.840598
2.575325
1.728358
3.513526
2.008185
1.713887
4.373604
4.847172
1.883113
1.611280
3.408060
1.737362
5.075908
4.631328
5.193008
1.983420
4.639017
4.073777
1.874548
1.353806
2.769639
2.475398
1.673577
1.305344
3.751089
2.315746
0.739363
6.043018
1.623752
5.631746
1.556398
7.306945
1.336979
2.444626
1.849347
1.743300
6.233694
6.328867
6.773374
1.544428
4.252917
7.190452
1.364086
7.602719
1.432078
1.261020
4.368264
6.869213
1.285184
1.266025
6.339271
1.977860
1.211081
1.599038
1.820839
3.128979
2.708553
1.591310
3.539938
2.008799
3.822691
4.250956
1.340119
2.397737
3.737281
2.902871
1.279549
2.634637
1.791767
4.440749
3.648545
5.774745
7.651484
2.005742
2.250092
2.557155
0.608596
1.921748
1.843127
1.968047
1.057133
2.114879
1.446690
1.770197
0.974540
2.457328
7.630937
1.829708
4.785977
2.363713
2.556046
3.690675
3.180169
3.973121
3.187805
1.110297
7.807595
4.453777
6.847841
5.751316
3.889957
5.521698
2.225582
2.111109
7.465814
1.059692
1.109292
6.939731
2.592705
1.881353
4.266609
1.670549
1.731862
2.321454
2.606793
2.066103
3.590732
2.870384
1.554748
2.471402
2.078210
1.655039
1.425808
1.155530
1.538135
2.054430
5.646725
1.734044
2.084471
1.238897
1.301114
4.219779
5.065826
1.535151
2.001793
2.450041
3.434660
4.251650
3.759041
1.474483
0.804313
1.645451
1.721514
1.843632
2.610301
3.169750
2.612514
1.546408
1.260810
4.252540
2.321984
2.371417
4.180554
3.548749
1.322243
1.275183
1.114001
3.114653
3.213795
3.299609
3.627602
2.630982
2.584822
3.257802
5.361736
1.903869
1.043901
0.404662
0.945681
5.112488
5.348277
2.784526
3.377174
3.088413
4.027262
0.218931
0.815482
4.853978
4.226032
3.015843
2.163815
2.016818
2.320554
2.281059
1.565699
3.500633
2.699705
5.749141
5.085057
5.924894
5.440026
3.755880
4.691540
2.223867
1.765087
2.239613
1.657653
1.463586
2.213147
2.623983
1.851628
5.029080
4.656519
1.295797
0.982104
1.683592
4.411307
3.440913
2.884679
2.301950
2.974822
2.395657
3.739064
2.780337
3.248990
2.744469
1.721988
1.882087
3.802241
3.901349
4.201134
3.938583
2.860309
3.007324
3.753187
0.250459
0.878066
2.435049
2.183915
3.419232
3.206606
2.575014
2.978591
2.889378
1.678992
3.936498
4.146743
2.408027
2.807011
1.499422
2.488167
2.793565
2.657974
2.930674
4.524255
4.780560
6.206750
3.569406
3.445167
6.428626
6.403788
1.203908
1.003224
0.445151
0.986194
0.590525
0.720421
2.021948
2.124908
1.344020
0.838140
4.772151
4.280280
1.408717
1.388689
1.116273
1.352026
1.638903
1.045941
5.389783
5.810708
4.199824
4.750786
2.059665
0.725135
0.521048
1.233160
0.933949
0.911627
0.549530
0.791207
0.388596
0.266163
1.136560
1.059949
1.393345
5.527255
5.558834
1.091327
1.007755
1.008886
4.148039
3.926943
0.445136
2.056771
1.749447
1.795929
1.934685
4.310267
4.058514
1.577771
1.213862
6.864587
7.128457
2.870138
3.351499
4.675121
5.222418
1.085367
0.966925
7.998988
8.475091
5.701317
6.423864
0.998988
0.914900
1.280474
8.115464
9.049785
6.024102
6.840092
0.995636
0.959191
2.013036
1.758633
3.079255
2.693052
1.328303
1.650821
1.320967
0.857382
5.793770
6.418140
5.377592
5.795652
2.133273
1.523036
3.933144
3.822093
5.077074
4.992489
4.531500
4.790981
3.294272
3.688387
6.406479
6.215016
1.342777
1.108042
4.883790
4.911718
4.415614
4.600681
3.779516
4.395372
1.858623
2.623102
6.146599
6.361168
2.340272
2.602939
3.150249
3.909127
7.053838
7.328976
6.820177
7.750508
1.126187
2.191539
7.015042
6.429697
1.069113
0.983356
5.637555
5.563201
3.646142
4.439125
4.737281
5.511806
7.676276
7.375347
7.736075
8.792879
8.376600
7.554277
1.966005
1.648219
1.908921
2.238012
1.711916
1.293879
1.318017
3.397622
3.705012
1.344095
1.571739
1.495854
1.605466
1.580617
2.040941
1.559202
2.819198
2.310188
1.257910
1.231531
3.265844
2.904379
2.685708
2.005830
1.086913
1.316045
1.347814
0.743374
2.158287
2.462698
1.452551
2.012341
2.321360
2.262040
3.943625
3.389370
1.574306
1.858528
1.783740
1.623362
1.484169
1.432097
6.852563
7.730368
1.030401
0.943888
1.189050
1.216143
2.890813
2.966504
8.011224
7.135797
8.758657
7.678304
1.078647
1.871150
2.122777
2.710231
2.434314
1.475982
1.910150
2.230548
2.673826
2.692133
0.928525
0.782395
0.847050
0.813993
3.774485
2.030139
2.031387
0.901429
0.998642
2.031138
3.339251
4.981792
4.798393
2.414125
2.360197
6.143506
1.623446
6.330986
0.767029
0.664765
1.960674
4.628447
0.540702
1.872687
1.413832
3.123350
3.327280
3.509893
1.601162
1.326257
2.762340
3.178477
1.026572
2.092786
1.177321
2.000559
2.741626
4.432299
3.935133
1.026615
2.973828
1.075250
1.852241
3.143874
5.279454
3.196087
4.789768
3.445220
2.146282
5.268957
4.584886
2.942436
1.755448
1.453351
2.751906
2.014782
2.557152
2.872235
4.056147
3.003770
1.056409
2.174254
4.157416
2.002706
2.638225
1.891170
1.480134
0.249306
2.867505
1.011176
2.443387
3.480518
2.668749
2.900473
1.192119
1.158508
1.852655
1.205356
2.326174
1.074291
1.936353
5.958787
5.037773
1.249221
1.377894
1.321185
2.118122
1.188819
3.411273
3.320536
1.550552
0.706474
1.394862
1.041571
1.703479
0.901689
3.813232
1.289915
2.705781
1.302925
1.018210
3.031649
4.243984
0.940446
1.254337
2.543091
4.966745
4.118375
3.871762
4.835962
5.019511
3.180837
4.492352
5.487393
1.635731
1.219186
4.485702
3.639643
4.821966
4.362959
5.336279
2.724345
4.271218
3.462756
2.881068
2.439990
5.108505
2.877871
5.636448
2.576292
1.789917
3.856958
3.839137
1.400658
3.473605
5.273740
1.105252
0.979146
1.241086
6.686322
1.479663
5.381699
7.261874
1.337484
5.413557
1.091366
0.932819
6.068358
4.564625
0.948508
2.710267
3.161997
4.506985
1.899591
1.785502
5.773536
0.911690
6.209268
0.863691
5.739219
0.201941
7.212524
1.033831
6.329585
1.091389
1.975808
7.266819
0.761664
1.200743
6.354251
3.558694
4.774061
1.159777
3.144466
2.480431
2.028419
2.984420
2.146827
3.161372
3.099694
2.828485
3.145209
3.129697
1.883032
1.091356
1.612357
5.028820
3.974445
0.895771
5.510202
3.722554
3.896176
4.550406
1.319102
5.632699
3.696214
3.039016
6.405969
2.958760
4.714774
2.255366
1.979736
5.599602
3.530345
4.895175
3.798622
5.431800
2.564991
1.681774
1.842342
2.690496
2.572867
2.112637
3.097429
1.186231
1.722850
6.324343
6.040909
5.247086
2.873389
1.619473
5.097083
1.336180
3.190161
2.864626
5.946328
7.199639
4.623897
1.202398
1.180058
4.357556
4.482590
3.898155
2.552395
1.197091
6.966399
3.430893
2.843132
3.048230
2.364937
0.929644
3.277348
6.582332
3.307691
5.526705
5.010456
4.391977
4.455235
2.680649
3.151242
4.808275
2.416128
2.108661
1.649233
2.011037
4.416702
2.925957
4.106028
2.835438
1.717892
1.859417
5.102272
1.165001
3.108442
5.414433
7.293613
3.347925
5.315464
3.379681
1.418913
5.227105
1.688752
2.136228
7.365211
1.976859
3.159888
1.392998
1.719958
4.074906
6.770389
2.385022
3.052208
7.933859
3.240185
4.173244
4.062898
5.686843
4.159648
3.539257
1.650792
3.805983
2.351096
3.497348
0.953564
1.319730
6.607259
7.362655
3.311589
1.177398
4.589929
2.392305
3.166327
3.129770
2.842766
4.583597
6.890096
4.474160
4.002523
1.879789
1.433930
2.626911
4.710605
2.837907
3.974014
5.577746
2.582764
6.530592
4.543916
2.614329
3.220198
1.317818
2.317764
3.825186
5.554890
2.801282
2.600116
2.098032
2.413821
1.042001
1.587267
3.954739
4.452843
1.115518
4.977500
5.818196
2.538790
5.368813
6.794674
2.738715
3.097116
5.424770
3.323958
2.508711
3.253461
2.535799
1.324982
2.819309
2.277134
1.129738
1.630065
3.410974
4.895487
4.137361
6.557834
3.359089
4.760810
5.427016
7.438148
8.588129
1.202271
2.013762
2.692414
3.948685
2.748247
4.190652
1.203202
5.532720
1.543328
4.494374
6.599387
3.853342
2.855710
4.522118
5.662416
2.602176
2.648532
1.349529
1.046876
3.079827
5.475512
7.479697
3.147088
5.654217
3.126319
4.132979
4.474865
5.587467
6.988696
6.640604
3.208219
3.913749
1.118234
4.242783
2.519355
4.350857
3.389663
2.802757
6.662079
7.329935
2.635983
1.246467
1.218034
3.934512
3.645575
7.491526
2.769084
5.959176
3.905897
6.588938
6.320424
8.289099
2.304913
4.932293
7.904110
3.411208
7.682748
2.313720
3.329452
3.623330
4.574075
3.504532
5.741748
6.023616
2.587561
1.927335
1.632808
2.145445
2.678736
2.633366
5.094532
1.982345
3.240554
1.820636
3.242359
5.306587
1.418024
3.363113
3.482303
0.879134
1.431443
3.398184
1.722837
1.764502
5.887082
3.711072
4.983606
5.231556
4.246508
2.718117
6.333114
4.356740
6.037882
3.061361
6.088533
3.306333
3.415309
3.732085
2.510264
2.017895
7.711967
1.115032
1.485175
4.821513
2.302928
3.938372
2.281770
4.491880
1.593084
3.199069
2.562319
4.882789
5.407239
4.540470
1.885109
2.188806
2.061324
7.790268
6.763702
2.722922
2.552947
1.157364
6.458784
2.389357
2.595089
2.490669
0.973276
1.764747
1.388587
2.191933
1.115885
6.026013
3.513943
3.539257
5.429671
4.352016
2.794053
6.596953
3.748534
4.563900
2.698123
4.472003
3.296347
3.169010
3.925297
2.692004
4.780029
6.778932
3.950139
1.727388
1.828538
3.794844
4.107162
5.704793
2.189378
3.295049
3.125698
3.725656
2.861974
1.279504
5.845669
2.554390
4.182290
2.176850
6.561320
3.058558
2.878911
4.620720
1.949549
4.711839
0.849832
3.478114
4.276725
2.371896
6.024487
1.947863
1.296028
5.820589
3.137282
1.221904
1.744517
2.748433
4.226285
3.647263
1.354508
3.599127
5.573353
5.185383
7.143411
3.482096
7.915062
6.104010
5.728497
3.030535
2.186205
4.599515
4.312041
8.073614
3.868469
4.033688
4.152921
1.072675
2.927346
5.172488
2.529156
3.804904
3.692268
1.478427
1.291272
4.675359
1.621020
0.940520
3.242971
2.697881
1.674328
1.560770
0.503714
0.448165
1.674774
3.828229
4.331909
0.623801
2.610803
1.471181
1.449595
0.822031
1.602565
0.851856
3.508284
1.814827
2.947043
3.855759
2.276438
1.333028
1.431120
0.394421
0.584400
1.355240
0.647273
2.401645
4.817859
4.285263
1.301123
1.820021
1.248065
0.831640
1.023200
1.077792
0.985765
0.971402
0.797411
0.732233
0.768544
0.516941
1.316382
1.338294
1.206477
0.466368
0.918045
0.876067
1.804039
1.127256
1.076785
1.092646
0.692904
0.732547
0.444674
0.978360
0.528337
0.450518
0.148877
0.667167
3.151313
3.108874
3.933227
0.672923
2.042915
1.894142
2.307654
2.404828
2.306917
1.215209
1.368904
2.376997
3.500642
3.265101
4.504561
2.023780
2.309420
4.356762
0.987805
0.664242
0.826372
0.928478
0.297760
2.154002
2.256078
1.797034
2.428799
2.775457
3.629935
3.677279
3.655837
2.515964
3.133825
2.312758
3.477930
1.690505
2.665163
1.498462
1.072801
1.093088
2.337202
2.202212
1.504557
1.081467
0.672999
0.780589
1.752762
1.830390
3.256379
3.181448
3.595946
3.008427
3.693288
2.117861
2.281461
2.540757
2.954462
2.555448
1.683576
2.506496
2.615499
2.077302
1.213159
1.541866
3.528853
4.278129
0.812349
0.426419
0.380757
0.616946
0.885695
0.368028
1.004553
0.631817
0.907636
5.178602
2.633942
3.584864
5.452739
0.706193
1.335946
1.208389
1.154409
1.074163
0.823202
1.137849
0.797670
0.386539
4.357972
5.396572
2.759927
1.339935
1.922200
4.250711
1.451817
1.362321
1.780564
0.888183
0.812997
4.178111
2.172160
0.955519
1.543223
1.231617
0.984156
0.281257
1.226044
1.491456
1.047105
2.828851
2.249025
1.536390
2.246012
1.121188
4.878867
4.234057
2.979840
1.486514
0.799503
4.859801
2.085604
1.159622
3.779234
5.489615
0.641173
2.102191
1.589422
4.729798
0.857608
1.435094
0.653425
2.687692
4.047096
4.018075
1.117152
5.752885
4.696681
5.299914
6.453616
1.992723
1.062442
0.990169
0.956732
0.608322
1.120530
1.001629
1.156444
1.905295
1.075544
2.631268
4.282117
2.428051
4.425305
2.700292
2.486229
1.243192
3.875398
3.405620
2.391691
0.606126
1.401283
1.110460
1.726127
2.304754
2.981899
1.117293
2.482351
1.165580
2.735232
1.187201
0.662523
0.511120
1.859001
2.026233
2.147081
3.618421
2.538163
2.278703
1.406356
2.323296
0.584468
0.880917
1.562425
1.315091
1.400207
1.268950
0.786009
0.912714
0.923580
1.402591
1.939574
0.705829
0.366833
1.384357
2.018274
0.229828
0.773103
1.575206
0.914389
4.745363
2.562465
0.203195
4.505909
4.020585
1.983258
3.776492
3.287287
3.070361
3.120304
4.458700
4.073930
2.802693
4.856900
1.977743
4.258614
0.953117
5.015421
3.537380
3.157486
6.220566
4.375874
4.359608
6.998240
5.496734
1.036504
0.918693
0.908564
0.808790
0.870705
0.907202
1.025680
1.275524
1.377778
2.121578
3.188259
0.834723
2.911343
1.470482
1.153977
0.163751
4.320547
4.821396
3.636422
6.061834
5.753654
4.099788
6.429689
4.645789
3.344209
4.100572
3.878702
2.531901
1.966361
3.490911
3.323890
2.349659
4.033415
2.463540
1.662897
3.591682
0.771865
0.475209
1.204382
0.983585
1.109419
1.294984
1.615802
2.275517
1.935807
0.816181
2.329770
1.793353
0.724955
6.317813
0.654807
0.885466
1.191389
0.595384
1.039190
0.915657
1.304077
0.878295
1.750972
0.588058
1.873101
1.396021
1.028911
1.121425
0.741256
1.836363
0.950139
2.599686
2.198305
2.243611
5.216183
0.741813
1.016390
1.462257
1.151110
0.747871
1.294606
2.570124
2.018515
2.569569
1.805774
1.993301
0.540183
0.687642
0.984648
0.727132
2.177252
2.534782
2.411952
1.079984
0.905813
1.409342
0.818959
3.627349
2.101221
3.798249
2.799257
2.671802
2.372832
1.312806
1.129298
1.078135
1.290254
1.330574
1.617161
1.202156
3.065966
2.744046
2.328335
3.407721
4.560273
1.684368
1.856139
1.401618
2.263094
1.741208
3.823907
2.922028
3.870599
2.076205
3.789795
2.648280
3.693195
2.522597
2.848395
2.193249
2.209867
3.203349
1.676460
2.613688
2.029030
2.155849
1.429014
1.498865
2.056503
2.808098
2.193446
2.362257
2.385354
3.911956
1.804405
1.931459
2.117676
1.433179
2.109777
1.446610
1.056111
2.963915
1.181660
1.206432
1.960770
1.718913
3.261926
1.230971
1.896746
2.636122
1.231135
2.654024
4.298295
0.997343
1.147411
0.807367
0.080643
2.189620
1.466457
4.813606
5.328916
4.054657
3.338058
1.964638
2.168053
1.198001
2.376832
0.866334
5.288513
2.912138
2.322794
4.079472
1.301219
1.121138
1.075786
0.931877
2.118904
1.541206
5.312148
2.018234
3.001713
3.244226
4.026094
0.932026
1.447593
1.112566
3.185217
3.101312
2.763129
2.066048
2.397968
1.503305
1.880350
1.341886
1.640324
1.103492
1.100680
3.212641
4.104063
3.530962
2.107838
2.788614
3.232956
2.639707
1.816689
2.023225
1.907488
1.992770
1.307043
2.912894
1.436100
3.468678
4.148869
4.643974
4.274076
4.783737
2.100282
0.843675
2.476049
1.854644
1.329862
3.929776
4.160651
5.071894
3.087569
3.906670
3.920671
2.286663
2.639633
0.851714
0.754961
0.659447
1.031711
0.730729
0.611949
2.523129
2.532103
2.174929
1.959069
2.970114
2.297780
2.300484
2.352623
2.207931
2.337391
3.119327
3.932450
2.478847
1.688206
1.128765
1.440239
1.536174
1.196685
1.039783
1.260589
1.856338
4.699464
2.448351
1.042939
1.054641
0.944474
5.867553
2.661220
1.515688
2.501756
2.717783
2.579605
2.014145
1.764161
3.026401
2.227142
3.640554
3.062310
1.872844
2.248889
2.630024
2.991452
2.692872
3.221252
4.210039
2.555195
4.687256
4.062331
5.135198
5.098268
1.586952
1.249761
4.069411
5.427489
4.514533
5.986159
5.546003
3.671164
2.692281
3.032422
1.190688
1.318287
1.282642
1.296428
1.439388
1.205309
1.228321
1.034751
4.566134
4.834862
4.719940
1.893447
4.509133
3.897940
4.365270
1.952862
1.774740
1.459824
3.580313
1.470383
1.090170
2.309548
1.487342
1.300666
3.621287
3.748917
2.598228
2.092003
1.568771
1.021925
2.115427
1.691931
6.413568
6.242602
2.031261
1.504638
3.425318
4.022486
3.477055
3.617571
2.888567
1.758914
3.717155
3.193227
2.356464
0.877698
0.950996
0.685114
2.891811
2.925257
1.083120
2.284303
1.601112
2.762630
3.567406
3.356318
1.750987
1.827042
3.541830
3.873995
2.970710
3.352375
4.387361
4.648910
3.930263
4.298454
1.703128
1.880032
1.971725
1.958991
0.921313
2.344241
2.092292
1.620527
4.393178
3.755409
2.761713
5.012394
4.972614
1.810401
1.378727
2.023503
1.929486
1.345400
1.139180
1.079646
2.540528
0.749689
2.742916
1.818759
1.544850
2.470386
2.103256
1.602875
1.680167
0.924563
0.869210
1.449569
3.299078
2.752552
5.116369
0.701547
2.711549
1.981788
2.100456
3.229258
0.830402
0.865403
0.936816
1.525121
1.388380
1.646211
1.238881
0.906101
1.215220
1.036539
1.727749
1.474746
1.974351
3.020570
3.189300
5.470481
4.813788
3.494220
1.541401
5.940553
5.319562
4.477357
1.326886
2.227067
1.549718
2.305843
1.960600
6.053682
5.037549
2.342376
1.924670
4.382028
2.497880
1.931571
2.030724
1.601577
1.148181
4.985051
5.219231
3.745851
1.744404
1.033924
1.205353
0.868436
0.660875
1.701248
1.309394
2.274591
1.174786
1.170049
3.097217
2.616129
3.382128
1.440465
1.904492
2.081950
2.301675
2.214160
2.334222
3.639798
3.695216
1.948327
3.342452
3.106512
0.438666
0.244069
0.692894
0.565907
0.278261
0.304406
0.231335
0.651225
0.064019
0.607626
1.473522
1.342334
2.065559
0.449011
1.149716
0.350946
0.749163
0.968504
0.957459
1.958892
1.880242
1.600941
1.337205
1.041562
0.611652
0.972382
0.696973
0.979200
0.871575
0.499554
0.257188
0.327406
0.336653
1.002885
0.727274
1.478974
0.855534
1.847114
1.795491
0.513870
0.183322
0.631636
0.337500
0.428984
0.343871
0.295921
1.068783
0.584262
1.682713
2.389005
1.714213
2.139583
1.818602
1.406700
2.067801
0.411134
0.608413
0.632935
0.812368
0.408760
0.825152
0.792160
1.308776
0.751379
1.457145
0.573603
0.813630
2.294002
2.071790
0.819946
0.915997
0.997223
0.598368
2.463994
1.951798
0.918343
1.232821
2.330232
1.675699
2.015623
1.862758
0.454693
1.083343
2.068200
1.118967
2.150346
1.389028
2.764015
2.427062
0.202309
0.389976
2.868718
2.228566
