# vtk DataFile Version 2.0
Unstructured Grid Example
ASCII
DATASET UNSTRUCTURED_GRID
POINTS 2044 float
0.788961 -0.073195 -0.265077 
0.082131 1.207394 0.260792 
-1.203174 -0.129991 0.237689 
0.115359 -0.764449 -0.282936 
0.036152 -0.028923 0.988560 
0.819657 -0.179819 -0.195709 
0.842095 -0.284744 -0.105277 
0.871728 -0.386136 -0.012864 
0.891234 -0.486865 0.084447 
0.899878 -0.589866 0.159153 
0.900606 -0.689236 0.233680 
0.866390 -0.773505 0.298083 
0.845794 -0.837627 0.316297 
0.793933 -0.876502 0.299641 
0.711386 -0.906742 0.250942 
0.621571 -0.909526 0.182991 
0.525459 -0.894234 0.092835 
0.432838 -0.880168 0.001436 
0.333047 -0.843922 -0.099877 
0.223465 -0.802119 -0.195648 
0.020572 -0.734001 -0.341500 
-0.088333 -0.703274 -0.377333 
-0.206101 -0.686142 -0.373933 
-0.314967 -0.677410 -0.341819 
-0.438008 -0.661880 -0.300998 
-0.555856 -0.664560 -0.186995 
-0.678523 -0.651194 -0.084755 
-0.795502 -0.636620 0.012661 
-0.900755 -0.602692 0.111170 
-1.006963 -0.575183 0.200185 
-1.094887 -0.521285 0.275615 
-1.163735 -0.464304 0.325584 
-1.204174 -0.390824 0.338465 
-1.225392 -0.298941 0.321639 
-1.232417 -0.210804 0.290903 
-1.153166 -0.028184 0.159197 
-1.091287 0.061186 0.062927 
-1.025146 0.153589 -0.023613 
-0.956945 0.248923 -0.103359 
-0.860326 0.334393 -0.187107 
-0.766786 0.415105 -0.244988 
-0.681514 0.503025 -0.276350 
-0.588276 0.590403 -0.298488 
-0.508103 0.686795 -0.267695 
-0.433601 0.771725 -0.212834 
-0.355264 0.868630 -0.140006 
-0.270920 0.965579 -0.058238 
-0.183266 1.040079 0.038331 
-0.104957 1.118914 0.123867 
-0.010305 1.178817 0.202641 
0.169145 1.245211 0.313484 
0.254122 1.250337 0.332922 
0.344452 1.221324 0.327439 
0.420794 1.171603 0.293049 
0.487977 1.118932 0.257245 
0.533547 1.030036 0.178869 
0.574238 0.930857 0.092355 
0.607452 0.827230 -0.000016 
0.618957 0.694343 -0.088724 
0.644979 0.586355 -0.186645 
0.673565 0.478847 -0.247512 
0.680540 0.367847 -0.309015 
0.693784 0.261347 -0.350013 
0.720238 0.146242 -0.344124 
0.757149 0.037901 -0.316705 
0.818722 -0.045293 -0.160551 
0.840721 -0.026754 -0.049851 
0.866235 -0.015790 0.069713 
0.878107 -0.012394 0.190713 
0.860211 -0.016764 0.298588 
0.836409 -0.015498 0.416670 
0.799260 -0.016483 0.526842 
0.743224 -0.032703 0.636613 
0.678831 -0.026353 0.725151 
0.614455 -0.029702 0.816560 
0.527879 -0.032231 0.878202 
0.437732 -0.036902 0.935323 
0.339245 -0.033089 0.975083 
0.237109 -0.030800 0.987445 
0.136255 -0.031909 0.996082 
0.041063 0.068506 0.971955 
0.038364 0.161917 0.954384 
0.037128 0.254743 0.927687 
0.037178 0.345603 0.899248 
0.032335 0.425158 0.851989 
0.017873 0.511417 0.825191 
0.011966 0.588795 0.791990 
0.010134 0.677387 0.746384 
0.011660 0.760384 0.694557 
0.004519 0.845935 0.665114 
0.016658 0.927052 0.626814 
0.029782 0.978146 0.563842 
0.035317 1.056146 0.507982 
0.045704 1.118625 0.440139 
0.059360 1.174862 0.361377 
-0.060009 -0.021208 0.972272 
-0.152141 -0.014018 0.960058 
-0.245524 -0.005152 0.932769 
-0.336066 0.004770 0.898153 
-0.420631 0.008868 0.868767 
-0.506375 0.011474 0.835010 
-0.588740 0.005499 0.798112 
-0.670146 -0.000183 0.753287 
-0.757449 -0.003104 0.709749 
-0.842196 -0.008333 0.665385 
-0.917430 -0.011636 0.608334 
-0.991237 -0.018808 0.551153 
-1.054289 -0.035589 0.487003 
-1.113573 -0.059151 0.414860 
-1.172198 -0.090445 0.331229 
0.029240 -0.128594 0.988535 
0.022131 -0.229944 0.982853 
0.018922 -0.326960 0.963860 
0.007105 -0.423332 0.921447 
0.002614 -0.521395 0.871806 
-0.015758 -0.605312 0.804153 
-0.022926 -0.680635 0.729832 
-0.014197 -0.753216 0.649070 
-0.016085 -0.802068 0.545491 
-0.011782 -0.832817 0.430385 
0.009179 -0.862235 0.303815 
0.018916 -0.865158 0.173512 
0.037545 -0.847008 0.051749 
0.055566 -0.823981 -0.067586 
0.084130 -0.799469 -0.174582 
0.764925 0.396117 0.294952 
0.405350 0.306701 0.843061 
0.389764 0.941148 0.613477 
0.808904 0.283612 0.043627 
0.807519 0.240100 -0.075955 
0.806517 0.177934 -0.111010 
0.765308 0.163256 -0.206625 
0.555817 0.846693 0.481763 
0.596112 0.267187 0.746417 
0.314289 0.634691 0.762529 
0.700052 0.618415 0.214040 
0.753025 0.240720 0.502327 
0.687869 0.655697 0.095828 
0.781244 0.144449 0.487145 
0.258505 0.479469 0.846373 
0.252890 0.834545 0.713543 
0.731047 0.487287 0.005989 
0.806986 0.173242 0.311622 
0.179146 0.363495 0.892565 
0.176683 0.963145 0.656356 
0.469733 0.749718 0.657418 
0.470925 0.455831 0.765124 
0.450990 1.067422 0.427970 
0.489253 0.107507 0.872134 
0.735402 0.415265 -0.113085 
0.838617 0.140578 0.175670 
0.133747 0.300879 0.925964 
0.131249 1.023436 0.594496 
0.324068 1.162748 0.436346 
0.338622 0.076759 0.964403 
0.723156 0.318736 -0.233003 
0.847346 0.074418 0.097683 
0.625152 0.528232 0.592288 
0.126789 0.237689 0.940228 
0.127066 1.075336 0.549261 
0.276193 1.198131 0.412740 
0.275583 0.050534 0.977828 
0.834525 0.080589 -0.064407 
0.734749 0.235865 -0.278997 
0.798140 0.062187 -0.172515 
0.712738 0.370671 0.537551 
0.669983 0.592731 0.412293 
0.572025 0.720823 0.556579 
0.592438 0.389280 0.686431 
0.732852 0.521991 0.206594 
0.773981 0.290883 0.386601 
0.724839 0.454204 0.391373 
0.445282 0.601631 0.726338 
0.393958 0.135936 0.924102 
0.371931 1.102668 0.483017 
0.436057 1.011194 0.541326 
0.464225 0.218439 0.867266 
0.385799 0.687597 0.714501 
0.387357 0.546574 0.764084 
0.527733 0.811411 0.588835 
0.539211 0.361395 0.749544 
0.334500 0.407828 0.837848 
0.320068 0.868886 0.678860 
0.508843 0.952399 0.459572 
0.552611 0.199655 0.811944 
0.359907 0.477342 0.801612 
0.360745 0.778408 0.695109 
0.290891 0.346820 0.868405 
0.281813 0.940605 0.648652 
0.779405 0.398978 0.092373 
0.818414 0.221265 0.179005 
0.503776 0.287568 0.804980 
0.481184 0.906045 0.561694 
0.430190 0.848743 0.636303 
0.438706 0.379394 0.802827 
0.141599 0.524279 0.842267 
0.128663 0.816146 0.708575 
0.241002 0.735950 0.735224 
0.245559 0.568422 0.814902 
0.116988 0.438632 0.855343 
0.100416 0.902734 0.671604 
0.701534 0.252352 0.615268 
0.653842 0.718387 0.334452 
0.512930 1.053567 0.307773 
0.570266 0.038282 0.847013 
0.229687 0.999226 0.617360 
0.234502 0.299691 0.896727 
0.262191 1.133462 0.505227 
0.273677 0.148826 0.955398 
0.507581 0.657002 0.685220 
0.488320 0.521029 0.733609 
0.328112 0.236697 0.903833 
0.320737 1.039150 0.576187 
0.832505 0.172160 0.011628 
0.763256 0.320606 -0.104121 
0.226281 0.431288 0.871366 
0.213591 0.893586 0.689850 
0.451341 1.124202 0.339408 
0.480622 0.019305 0.896154 
0.393070 1.153984 0.389656 
0.413669 0.042800 0.936047 
0.100454 0.376127 0.888031 
0.093815 0.963880 0.629546 
0.154135 1.137314 0.496508 
0.159035 0.159076 0.957877 
0.203959 0.237258 0.931096 
0.203585 1.066430 0.567239 
0.674658 0.436651 0.570077 
0.656731 0.573468 0.503185 
0.607673 0.634079 0.562923 
0.617938 0.456086 0.648453 
0.752404 0.368119 0.387018 
0.735301 0.483722 0.293217 
0.689834 0.492420 0.501770 
0.576029 0.885936 0.381680 
0.629100 0.182394 0.744721 
0.753149 0.477991 0.122326 
0.796233 0.253294 0.294571 
0.702902 0.535705 0.414164 
0.722575 0.411132 0.474805 
0.780751 0.325230 0.317524 
0.745962 0.326659 0.470699 
0.707090 0.570091 0.326220 
0.550705 0.699044 0.628343 
0.548294 0.458558 0.711332 
0.798246 0.324147 0.196968 
0.765513 0.433738 0.202179 
0.827707 0.193669 0.097062 
0.776190 0.238996 -0.182993 
0.610733 0.740412 0.465468 
0.646096 0.313939 0.674766 
0.707127 0.311638 0.569273 
0.674878 0.655870 0.376712 
0.575680 0.607069 0.626984 
0.548696 0.550939 0.680270 
0.202731 0.656740 0.781714 
0.625333 0.646472 0.477088 
0.661381 0.381060 0.618642 
0.112036 0.620679 0.795970 
0.117838 0.709752 0.745917 
0.655138 0.732623 0.230152 
0.730337 0.178876 0.589676 
0.782271 0.031560 -0.248900 
0.607712 0.112869 0.798161 
0.549318 0.972602 0.346195 
0.778285 0.049705 0.557503 
0.643234 0.727582 0.033907 
0.777575 0.219913 0.384715 
0.732744 0.556071 0.106656 
0.679210 0.605484 -0.043095 
0.806617 0.071655 0.432301 
0.182487 0.058032 0.983909 
0.194393 1.201900 0.410934 
0.849012 0.051502 0.214763 
0.702591 0.419278 -0.206117 
0.695620 0.502788 -0.144011 
0.838113 0.066195 0.311618 
0.770670 0.387269 -0.013196 
0.678979 0.212051 0.681172 
0.619091 0.801516 0.354710 
0.127305 1.210300 0.358701 
0.101595 0.028752 0.986531 
0.104017 0.096067 0.975145 
0.118483 1.172946 0.417537 
0.610224 0.842580 0.122991 
0.723671 0.041581 0.668421 
0.572186 0.957647 0.223112 
0.654868 0.041229 0.767110 
0.645278 0.745804 0.129778 
0.755131 0.102139 0.590662 
0.607386 0.852998 0.258944 
0.689668 0.123676 0.695760 
0.704633 0.581988 0.038510 
-0.430792 0.447174 0.626514 
-0.354329 0.856882 0.263686 
-0.844015 0.350828 0.218852 
-0.307109 0.309590 0.787017 
-0.223794 0.261747 0.850970 
-0.178041 0.189609 0.895862 
-0.121950 0.118902 0.937871 
-0.316884 0.774203 0.444656 
-0.768988 0.320556 0.419301 
-0.630040 0.631472 0.004030 
-0.279579 0.602970 0.640650 
-0.604734 0.300791 0.622771 
-0.182923 0.585241 0.711338 
-0.620497 0.196878 0.683283 
-0.476239 0.781032 0.010379 
-0.778321 0.466518 -0.030953 
-0.201154 0.482452 0.762171 
-0.465929 0.221906 0.745208 
-0.352189 0.909166 0.033539 
-0.904599 0.333096 -0.012781 
-0.718879 0.495248 0.195158 
-0.499015 0.725029 0.218815 
-0.140632 0.922862 0.489313 
-0.911698 0.148137 0.458384 
-0.141831 0.400265 0.814177 
-0.380740 0.168527 0.817018 
-0.269840 0.982950 0.067724 
-0.976973 0.248318 0.014334 
-0.081093 1.020312 0.422315 
-1.026012 0.083775 0.386684 
-0.304110 0.095124 0.870403 
-0.059648 0.323136 0.885874 
-0.561084 0.560536 0.354816 
-0.206382 1.032500 0.132843 
-1.018210 0.180670 0.065303 
-0.047072 1.075678 0.401205 
-1.068714 0.039853 0.365298 
-0.189909 0.097705 0.917775 
-0.070193 0.197487 0.924526 
-0.114854 0.045905 0.951893 
-0.417594 0.598730 0.498793 
-0.611032 0.432353 0.491821 
-0.439912 0.686825 0.363739 
-0.692459 0.448934 0.345456 
-0.530080 0.344949 0.632621 
-0.337542 0.524908 0.632560 
-0.486007 0.490610 0.542991 
-0.604774 0.617485 0.123532 
-0.170801 0.977763 0.406909 
-0.966799 0.173544 0.358833 
-0.257821 0.892677 0.389305 
-0.882039 0.262434 0.344951 
[...]
POINT_DATA 2044
SCALARS u float 1
LOOKUP_TABLE default
6.940706
6.871319
6.780374
7.724826
0.954904
5.512732
3.921378
2.580842
2.763620
3.988845
5.565173
6.846623
7.392502
7.105882
6.103356
4.771958
3.461205
3.242043
4.374812
6.049684
8.929814
9.619010
9.396683
8.546026
7.495355
5.018717
3.099966
2.277871
3.449629
5.344842
7.045224
8.260351
8.630479
8.353772
7.847877
5.152814
3.697466
3.095130
3.448803
4.663409
5.800835
6.394695
6.843998
6.172802
5.055247
3.651875
2.657943
2.819879
4.130046
5.750293
8.154040
8.658042
8.496065
7.720999
7.011484
5.369205
3.854751
3.125124
3.756507
5.318753
6.479750
7.881020
8.787137
8.697599
8.023506
6.333258
5.674936
4.785733
3.959304
3.503403
2.800150
2.241119
1.715813
1.410105
1.353857
1.304238
1.346595
1.237714
1.051634
0.997341
1.114227
1.144841
1.184126
1.161298
1.278870
0.961995
1.017548
1.006858
1.252823
2.214252
3.257543
3.833195
4.842068
5.703393
6.493209
0.984867
0.995255
1.023772
1.070372
1.064940
1.013930
1.048956
1.184350
1.541910
2.215551
2.842107
3.652301
4.452139
5.275899
6.135619
0.857519
0.827694
0.837854
0.827660
1.022715
1.179258
1.347384
1.511125
1.900218
2.517764
3.383500
4.366544
5.312389
6.225538
6.927181
3.423838
1.941578
5.145327
5.748480
6.810135
7.179592
7.980980
3.484308
2.086463
2.028599
1.535878
2.753628
2.337198
2.859673
1.565329
3.712713
4.642638
4.236895
1.389545
5.016310
3.098270
1.848652
6.526158
1.665726
6.200930
5.038703
1.224981
5.375790
7.775501
1.349026
7.712171
5.353295
1.649171
1.226644
5.959940
8.046837
1.240753
6.534848
8.385052
7.303803
2.447089
0.832805
2.210978
2.021654
2.855849
3.508250
2.441956
2.040845
1.645099
6.982965
6.061711
1.840598
2.575325
1.728358
3.513526
2.008185
1.713887
4.373604
4.847172
1.883113
1.611280
3.408060
1.737362
5.075908
4.631328
5.193008
1.983420
4.639017
4.073777
1.874548
1.353806
2.769639
2.475398
1.673577
1.305344
3.751089
2.315746
0.739363
6.043018
1.623752
5.631746
1.556398
7.306945
1.336979
2.444626
1.849347
1.743300
6.233694
6.328867
6.773374
1.544428
4.252917
7.190452
1.364086
7.602719
1.432078
1.261020
4.368264
6.869213
1.285184
1.266025
6.339271
1.977860
1.211081
1.599038
1.820839
3.128979
2.708553
1.591310
3.539938
2.008799
3.822691
4.250956
1.340119
2.397737
3.737281
2.902871
1.279549
2.634637
1.791767
4.440749
3.648545
5.774745
7.651484
2.005742
2.250092
2.557155
0.608596
1.921748
1.843127
1.968047
1.057133
2.114879
1.446690
1.770197
0.974540
2.457328
7.630937
1.829708
4.785977
2.363713
2.556046
3.690675
3.180169
3.973121
3.187805
1.110297
7.807595
4.453777
6.847841
5.751316
3.889957
5.521698
2.225582
2.111109
7.465814
1.059692
1.109292
6.939731
2.592705
1.881353
4.266609
1.670549
1.731862
2.321454
2.606793
2.066103
3.590732
2.870384
1.554748
2.471402
2.078210
1.655039
1.425808
1.155530
1.538135
2.054430
5.646725
1.734044
2.084471
1.238897
1.301114
4.219779
5.065826
1.535151
2.001793
2.450041
3.434660
4.251650
3.759041
1.474483
0.804313
1.645451
1.721514
1.843632
2.610301
3.169750
2.612514
1.546408
1.260810
4.252540
2.321984
2.371417
4.180554
3.548749
1.322243
1.275183
1.114001
3.114653
3.213795
3.299609
3.627602
2.630982
2.584822
3.257802
5.361736
1.903869
1.043901
0.404662
0.945681
5.112488
5.348277
2.784526
3.377174
3.088413
4.027262
0.218931
0.815482
4.853978
4.226032
3.015843
2.163815
2.016818
2.320554
2.281059
1.565699
3.500633
2.699705
5.749141
5.085057
5.924894
5.440026
3.755880
4.691540
2.223867
1.765087
2.239613
1.657653
1.463586
2.213147
2.623983
1.851628
5.029080
4.656519
1.295797
0.982104
1.683592
4.411307
3.440913
2.884679
2.301950
2.974822
2.395657
3.739064
2.780337
3.248990
2.744469
1.721988
1.882087
3.802241
3.901349
4.201134
3.938583
2.860309
3.007324
3.753187
0.250459
0.878066
2.435049
2.183915
3.419232
3.206606
2.575014
2.978591
2.889378
1.678992
3.936498
4.146743
2.408027
2.807011
1.499422
2.488167
2.793565
2.657974
2.930674
4.524255
4.780560
6.206750
3.569406
3.445167
6.428626
6.403788
1.203908
1.003224
0.445151
0.986194
0.590525
0.720421
2.021948
2.124908
1.344020
0.838140
4.772151
4.280280
1.408717
1.388689
1.116273
1.352026
1.638903
1.045941
5.389783
5.810708
4.199824
4.750786
2.059665
0.725135
0.521048
1.233160
0.933949
0.911627
0.549530
0.791207
0.388596
0.266163
1.136560
1.059949
1.393345
5.527255
5.558834
1.091327
1.007755
1.008886
4.148039
3.926943
0.445136
2.056771
1.749447
1.795929
1.934685
4.310267
4.058514
1.577771
1.213862
6.864587
7.128457
2.870138
3.351499
4.675121
5.222418
1.085367
0.966925
7.998988
8.475091
5.701317
6.423864
0.998988
0.914900
1.280474
8.115464
9.049785
6.024102
6.840092
0.995636
0.959191
2.013036
1.758633
3.079255
2.693052
1.328303
1.650821
1.320967
0.857382
5.793770
6.418140
5.377592
5.795652
2.133273
1.523036
3.933144
3.822093
5.077074
4.992489
4.531500
4.790981
3.294272
3.688387
6.406479
6.215016
1.342777
1.108042
4.883790
4.911718
4.415614
4.600681
3.779516
4.395372
1.858623
2.623102
6.146599
6.361168
2.340272
2.602939
3.150249
3.909127
7.053838
7.328976
6.820177
7.750508
1.126187
2.191539
7.015042
6.429697
1.069113
0.983356
5.637555
5.563201
3.646142
4.439125
4.737281
5.511806
7.676276
7.375347
7.736075
8.792879
8.376600
7.554277
1.966005
1.648219
1.908921
2.238012
1.711916
1.293879
1.318017
3.397622
3.705012
1.344095
1.571739
1.495854
1.605466
1.580617
2.040941
1.559202
2.819198
2.310188
1.257910
1.231531
3.265844
2.904379
2.685708
2.005830
1.086913
1.316045
1.347814
0.743374
2.158287
2.462698
1.452551
2.012341
2.321360
2.262040
3.943625
3.389370
1.574306
1.858528
1.783740
1.623362
1.484169
1.432097
6.852563
7.730368
1.030401
0.943888
1.189050
1.216143
2.890813
2.966504
8.011224
7.135797
8.758657
7.678304
1.078647
1.871150
2.122777
2.710231
2.434314
1.475982
1.910150
2.230548
2.673826
2.692133
0.928525
0.782395
0.847050
0.813993
3.774485
2.030139
2.031387
0.901429
0.998642
2.031138
3.339251
4.981792
4.798393
2.414125
2.360197
6.143506
1.623446
6.330986
0.767029
0.664765
1.960674
4.628447
0.540702
1.872687
1.413832
3.123350
3.327280
3.509893
1.601162
1.326257
2.762340
3.178477
1.026572
2.092786
1.177321
2.000559
2.741626
4.432299
3.935133
1.026615
2.973828
1.075250
1.852241
3.143874
5.279454
3.196087
4.789768
3.445220
2.146282
5.268957
4.584886
2.942436
1.755448
1.453351
2.751906
2.014782
2.557152
2.872235
4.056147
3.003770
1.056409
2.174254
4.157416
2.002706
2.638225
1.891170
1.480134
0.249306
2.867505
1.011176
2.443387
3.480518
2.668749
2.900473
1.192119
1.158508
1.852655
1.205356
2.326174
1.074291
1.936353
5.958787
5.037773
1.249221
1.377894
1.321185
2.118122
1.188819
3.411273
3.320536
1.550552
0.706474
1.394862
1.041571
1.703479
0.901689
3.813232
1.289915
2.705781
1.302925
1.018210
3.031649
4.243984
0.940446
1.254337
2.543091
4.966745
4.118375
3.871762
4.835962
5.019511
3.180837
4.492352
5.487393
1.635731
1.219186
4.485702
3.639643
4.821966
4.362959
5.336279
2.724345
4.271218
3.462756
2.881068
2.439990
5.108505
2.877871
5.636448
2.576292
1.789917
3.856958
3.839137
1.400658
3.473605
5.273740
1.105252
0.979146
1.241086
6.686322
1.479663
5.381699
7.261874
1.337484
5.413557
1.091366
0.932819
6.068358
4.564625
0.948508
2.710267
3.161997
4.506985
1.899591
1.785502
5.773536
0.911690
6.209268
0.863691
5.739219
0.201941
7.212524
1.033831
6.329585
1.091389
1.975808
7.266819
0.761664
1.200743
6.354251
3.558694
4.774061
1.159777
3.144466
2.480431
2.028419
2.984420
2.146827
3.161372
3.099694
2.828485
3.145209
3.129697
1.883032
1.091356
1.612357
5.028820
3.974445
0.895771
5.510202
3.722554
3.896176
4.550406
1.319102
5.632699
3.696214
3.039016
6.405969
2.958760
4.714774
2.255366
1.979736
5.599602
3.530345
4.895175
3.798622
5.431800
2.564991
1.681774
1.842342
2.690496
2.572867
2.112637
3.097429
1.186231
1.722850
6.324343
6.040909
5.247086
2.873389
1.619473
5.097083
1.336180
3.190161
2.864626
5.946328
7.199639
4.623897
1.202398
1.180058
4.357556
4.482590
3.898155
2.552395
1.197091
6.966399
3.430893
2.843132
3.048230
2.364937
0.929644
3.277348
6.582332
3.307691
5.526705
5.010456
4.391977
4.455235
2.680649
3.151242
4.808275
2.416128
2.108661
1.649233
2.011037
4.416702
2.925957
4.106028
2.835438
1.717892
1.859417
5.102272
1.165001
3.108442
5.414433
7.293613
3.347925
5.315464
3.379681
1.418913
5.227105
1.688752
2.136228
7.365211
1.976859
3.159888
1.392998
1.719958
4.074906
6.770389
2.385022
3.052208
7.933859
3.240185
4.173244
4.062898
5.686843
4.159648
3.539257
1.650792
3.805983
2.351096
3.497348
0.953564
1.319730
6.607259
7.362655
3.311589
1.177398
4.589929
2.392305
3.166327
3.129770
2.842766
4.583597
6.890096
4.474160
4.002523
1.879789
1.433930
2.626911
4.710605
2.837907
3.974014
5.577746
2.582764
6.530592
4.543916
2.614329
3.220198
1.317818
2.317764
3.825186
5.554890
2.801282
2.600116
2.098032
2.413821
1.042001
1.587267
3.954739
4.452843
1.115518
4.977500
5.818196
2.538790
5.368813
6.794674
2.738715
3.097116
5.424770
3.323958
2.508711
3.253461
2.535799
1.324982
2.819309
2.277134
1.129738
1.630065
3.410974
4.895487
4.137361
6.557834
3.359089
4.760810
5.427016
7.438148
8.588129
1.202271
2.013762
2.692414
3.948685
2.748247
4.190652
1.203202
5.532720
1.543328
4.494374
6.599387
3.853342
2.855710
4.522118
5.662416
2.602176
2.648532
1.349529
1.046876
3.079827
5.475512
7.479697
3.147088
5.654217
3.126319
4.132979
4.474865
5.587467
6.988696
6.640604
3.208219
3.913749
1.118234
4.242783
2.519355
4.350857
3.389663
2.802757
6.662079
7.329935
2.635983
1.246467
1.218034
3.934512
3.645575
7.491526
2.769084
5.959176
3.905897
6.588938
6.320424
8.289099
2.304913
4.932293
7.904110
3.411208
7.682748
2.313720
3.329452
3.623330
4.574075
3.504532
5.741748
6.023616
2.587561
1.927335
1.632808
2.145445
2.678736
2.633366
5.094532
1.982345
3.240554
1.820636
3.242359
5.306587
1.418024
3.363113
3.482303
0.879134
1.431443
3.398184
1.722837
1.764502
5.887082
3.711072
4.983606
5.231556
4.246508
2.718117
6.333114
4.356740
6.037882
3.061361
6.088533
3.306333
3.415309
3.732085
2.510264
2.017895
7.711967
1.115032
1.485175
4.821513
2.302928
3.938372
2.281770
4.491880
1.593084
3.199069
2.562319
4.882789
5.407239
4.540470
1.885109
2.188806
2.061324
7.790268
6.763702
2.722922
2.552947
1.157364
6.458784
2.389357
2.595089
2.490669
0.973276
1.764747
1.388587
2.191933
1.115885
6.026013
3.513943
3.539257
5.429671
4.352016
2.794053
6.596953
3.748534
4.563900
2.698123
4.472003
3.296347
3.169010
3.925297
2.692004
4.780029
6.778932
3.950139
1.727388
1.828538
3.794844
4.107162
5.704793
2.189378
3.295049
3.125698
3.725656
2.861974
1.279504
5.845669
2.554390
4.182290
2.176850
6.561320
3.058558
2.878911
4.620720
1.949549
4.711839
0.849832
3.478114
4.276725
2.371896
6.024487
1.947863
1.296028
5.820589
3.137282
1.221904
1.744517
2.748433
4.226285
3.647263
1.354508
3.599127
5.573353
5.185383
7.143411
3.482096
7.915062
6.104010
5.728497
3.030535
2.186205
4.599515
4.312041
8.073614
3.868469
4.033688
4.152921
1.072675
2.927346
5.172488
2.529156
3.804904
3.692268
1.478427
1.291272
4.675359
1.621020
0.940520
3.242971
2.697881
1.674328
1.560770
0.503714
0.448165
1.674774
3.828229
4.331909
0.623801
2.610803
1.471181
1.449595
0.822031
1.602565
0.851856
3.508284
1.814827
2.947043
3.855759
2.276438
1.333028
1.431120
0.394421
0.584400
1.355240
0.647273
2.401645
4.817859
4.285263
1.301123
1.820021
1.248065
0.831640
1.023200
1.077792
0.985765
0.971402
0.797411
0.732233
0.768544
0.516941
1.316382
1.338294
1.206477
0.466368
0.918045
0.876067
1.804039
1.127256
1.076785
1.092646
0.692904
0.732547
0.444674
0.978360
0.528337
0.450518
0.148877
0.667167
3.151313
3.108874
3.933227
0.672923
2.042915
1.894142
2.307654
2.404828
2.306917
1.215209
1.368904
2.376997
3.500642
3.265101
4.504561
2.023780
2.309420
4.356762
0.987805
0.664242
0.826372
0.928478
0.297760
2.154002
2.256078
1.797034
2.428799
2.775457
3.629935
3.677279
3.655837
2.515964
3.133825
2.312758
3.477930
1.690505
2.665163
1.498462
1.072801
1.093088
2.337202
2.202212
1.504557
1.081467
0.672999
0.780589
1.752762
1.830390
3.256379
3.181448
3.595946
3.008427
3.693288
2.117861
2.281461
2.540757
2.954462
2.555448
1.683576
2.506496
2.615499
2.077302
1.213159
1.541866
3.528853
4.278129
0.812349
0.426419
0.380757
0.616946
0.885695
0.368028
1.004553
0.631817
0.907636
5.178602
2.633942
3.584864
5.452739
0.706193
1.335946
1.208389
1.154409
1.074163
0.823202
1.137849
0.797670
0.386539
4.357972
5.396572
2.759927
1.339935
1.922200
4.250711
1.451817
1.362321
1.780564
0.888183
0.812997
4.178111
2.172160
0.955519
1.543223
1.231617
0.984156
0.281257
1.226044
1.491456
1.047105
2.828851
2.249025
1.536390
2.246012
1.121188
4.878867
4.234057
2.979840
1.486514
0.799503
4.859801
2.085604
1.159622
3.779234
5.489615
0.641173
2.102191
1.589422
4.729798
0.857608
1.435094
0.653425
2.687692
4.047096
4.018075
1.117152
5.752885
4.696681
5.299914
6.453616
1.992723
1.062442
0.990169
0.956732
0.608322
1.120530
1.001629
1.156444
1.905295
1.075544
2.631268
4.282117
2.428051
4.425305
2.700292
2.486229
1.243192
3.875398
3.405620
2.391691
0.606126
1.401283
1.110460
1.726127
2.304754
2.981899
1.117293
2.482351
1.165580
2.735232
1.187201
0.662523
0.511120
1.859001
2.026233
2.147081
3.618421
2.538163
2.278703
1.406356
2.323296
0.584468
0.880917
1.562425
1.315091
1.400207
1.268950
0.786009
0.912714
0.923580
1.402591
1.939574
0.705829
0.366833
1.384357
2.018274
0.229828
0.773103
1.575206
0.914389
4.745363
2.562465
0.203195
4.505909
4.020585
1.983258
3.776492
3.287287
3.070361
3.120304
4.458700
4.073930
2.802693
4.856900
1.977743
4.258614
0.953117
5.015421
3.537380
3.157486
6.220566
4.375874
4.359608
6.998240
5.496734
1.036504
0.918693
0.908564
0.808790
0.870705
0.907202
1.025680
1.275524
1.377778
2.121578
3.188259
0.834723
2.911343
1.470482
1.153977
0.163751
4.320547
4.821396
3.636422
6.061834
5.753654
4.099788
6.429689
4.645789
3.344209
4.100572
3.878702
2.531901
1.966361
3.490911
3.323890
2.349659
4.033415
2.463540
1.662897
3.591682
0.771865
0.475209
1.204382
0.983585
1.109419
1.294984
1.615802
2.275517
1.935807
0.816181
2.329770
1.793353
0.724955
6.317813
0.654807
0.885466
1.191389
0.595384
1.039190
0.915657
1.304077
0.878295
1.750972
0.588058
1.873101
1.396021
1.028911
1.121425
0.741256
1.836363
0.950139
2.599686
2.198305
2.243611
5.216183
0.741813
1.016390
1.462257
1.151110
0.747871
1.294606
2.570124
2.018515
2.569569
1.805774
1.993301
0.540183
0.687642
0.984648
0.727132
2.177252
2.534782
2.411952
1.079984
0.905813
1.409342
0.818959
3.627349
2.101221
3.798249
2.799257
2.671802
2.372832
1.312806
1.129298
1.078135
1.290254
1.330574
1.617161
1.202156
3.065966
2.744046
2.328335
3.407721
4.560273
1.684368
1.856139
1.401618
2.263094
1.741208
3.823907
2.922028
3.870599
2.076205
3.789795
2.648280
3.693195
2.522597
2.848395
2.193249
2.209867
3.203349
1.676460
2.613688
2.029030
2.155849
1.429014
1.498865
2.056503
2.808098
2.193446
2.362257
2.385354
3.911956
1.804405
1.931459
2.117676
1.433179
2.109777
1.446610
1.056111
2.963915
1.181660
1.206432
1.960770
1.718913
3.261926
1.230971
1.896746
2.636122
1.231135
2.654024
4.298295
0.997343
1.147411
0.807367
0.080643
2.189620
1.466457
4.813606
5.328916
4.054657
3.338058
1.964638
2.168053
1.198001
2.376832
0.866334
5.288513
2.912138
2.322794
4.079472
1.301219
1.121138
1.075786
0.931877
2.118904
1.541206
5.312148
2.018234
3.001713
3.244226
4.026094
0.932026
1.447593
1.112566
3.185217
3.101312
2.763129
2.066048
2.397968
1.503305
1.880350
1.341886
1.640324
1.103492
1.100680
3.212641
4.104063
3.530962
2.107838
2.788614
3.232956
2.639707
1.816689
2.023225
1.907488
1.992770
1.307043
2.912894
1.436100
3.468678
4.148869
4.643974
4.274076
4.783737
2.100282
0.843675
2.476049
1.854644
1.329862
3.929776
4.160651
5.071894
3.087569
3.906670
3.920671
2.286663
2.639633
0.851714
0.754961
0.659447
1.031711
0.730729
0.611949
2.523129
2.532103
2.174929
1.959069
2.970114
2.297780
2.300484
2.352623
2.207931
2.337391
3.119327
3.932450
2.478847
1.688206
1.128765
1.440239
1.536174
1.196685
1.039783
1.260589
1.856338
4.699464
2.448351
1.042939
1.054641
0.944474
5.867553
2.661220
1.515688
2.501756
2.717783
2.579605
2.014145
1.764161
3.026401
2.227142
3.640554
3.062310
1.872844
2.248889
2.630024
2.991452
2.692872
3.221252
4.210039
2.555195
4.687256
4.062331
5.135198
5.098268
1.586952
1.249761
4.069411
5.427489
4.514533
5.986159
5.546003
3.671164
2.692281
3.032422
1.190688
1.318287
1.282642
1.296428
1.439388
1.205309
1.228321
1.034751
4.566134
4.834862
4.719940
1.893447
4.509133
3.897940
4.365270
1.952862
1.774740
1.459824
3.580313
1.470383
1.090170
2.309548
1.487342
1.300666
3.621287
3.748917
2.598228
2.092003
1.568771
1.021925
2.115427
1.691931
6.413568
6.242602
2.031261
1.504638
3.425318
4.022486
3.477055
3.617571
2.888567
1.758914
3.717155
3.193227
2.356464
0.877698
0.950996
0.685114
2.891811
2.925257
1.083120
2.284303
1.601112
2.762630
3.567406
3.356318
1.750987
1.827042
3.541830
3.873995
2.970710
3.352375
4.387361
4.648910
3.930263
4.298454
1.703128
1.880032
1.971725
1.958991
0.921313
2.344241
2.092292
1.620527
4.393178
3.755409
2.761713
5.012394
4.972614
1.810401
1.378727
2.023503
1.929486
1.345400
1.139180
1.079646
2.540528
0.749689
2.742916
1.818759
1.544850
2.470386
2.103256
1.602875
1.680167
0.924563
0.869210
1.449569
3.299078
2.752552
5.116369
0.701547
2.711549
1.981788
2.100456
3.229258
0.830402
0.865403
0.936816
1.525121
1.388380
1.646211
1.238881
0.906101
1.215220
1.036539
1.727749
1.474746
1.974351
3.020570
3.189300
5.470481
4.813788
3.494220
1.541401
5.940553
5.319562
4.477357
1.326886
2.227067
1.549718
2.305843
1.960600
6.053682
5.037549
2.342376
1.924670
4.382028
2.497880
1.931571
2.030724
1.601577
1.148181
4.985051
5.219231
3.745851
1.744404
1.033924
1.205353
0.868436
0.660875
1.701248
1.309394
2.274591
1.174786
1.170049
3.097217
2.616129
3.382128
1.440465
1.904492
2.081950
2.301675
2.214160
2.334222
3.639798
3.695216
1.948327
3.342452
3.106512
0.438666
0.244069
0.692894
0.565907
0.278261
0.304406
0.231335
0.651225
0.064019
0.607626
1.473522
1.342334
2.065559
0.449011
1.149716
0.350946
0.749163
0.968504
0.957459
1.958892
1.880242
1.600941
1.337205
1.041562
0.611652
0.972382
0.696973
0.979200
0.871575
0.499554
0.257188
0.327406
0.336653
1.002885
0.727274
1.478974
0.855534
1.847114
1.795491
0.513870
0.183322
0.631636
0.337500
0.428984
0.343871
0.295921
1.068783
0.584262
1.682713
2.389005
1.714213
2.139583
1.818602
1.406700
2.067801
0.411134
0.608413
0.632935
0.812368
0.408760
0.825152
0.792160
1.308776
0.751379
1.457145
0.573603
0.813630
2.294002
2.071790
0.819946
0.915997
0.997223
0.598368
2.463994
1.951798
0.918343
1.232821
2.330232
1.675699
2.015623
1.862758
0.454693
1.083343
2.068200
1.118967
2.150346
1.389028
2.764015
2.427062
0.202309
0.389976
2.868718
2.228566
