# vtk DataFile Version 2.0
Unstructured Grid Example
ASCII
DATASET UNSTRUCTURED_GRID
POINTS 2044 float
1.205322 0.071212 0.257897 
-0.079906 0.798224 -0.253728 
-0.802329 0.126470 -0.231251 
-0.112235 -1.229171 0.275272 
-0.035173 0.028140 1.011131 
1.165958 -0.018431 0.190408 
1.115719 -0.107865 0.102425 
1.039844 -0.197029 0.012516 
0.955640 -0.281324 -0.082160 
0.864451 -0.356136 -0.154842 
0.764206 -0.425525 -0.227350 
0.682160 -0.499049 -0.290009 
0.572176 -0.580122 -0.307730 
0.479175 -0.672322 -0.291525 
0.403975 -0.758237 -0.244145 
0.325290 -0.855065 -0.178034 
0.243775 -0.952722 -0.090320 
0.151592 -1.031634 -0.001397 
0.060870 -1.113942 0.097172 
-0.024033 -1.183021 0.190348 
-0.213394 -1.249294 0.332250 
-0.298956 -1.250780 0.367112 
-0.372188 -1.220404 0.363804 
-0.448566 -1.163673 0.332560 
-0.503881 -1.096002 0.292845 
-0.555292 -0.993859 0.181930 
-0.591459 -0.891527 0.082460 
-0.621106 -0.775684 -0.012318 
-0.648726 -0.665236 -0.108159 
-0.660730 -0.536488 -0.194763 
-0.674724 -0.422860 -0.268149 
-0.690521 -0.303274 -0.316765 
-0.716403 -0.192468 -0.329297 
-0.742804 -0.094053 -0.312927 
-0.764379 0.011715 -0.283023 
-0.841483 0.220800 -0.154885 
-0.873277 0.325368 -0.061223 
-0.890582 0.423278 0.022974 
-0.891710 0.512821 0.100559 
-0.902932 0.604690 0.182039 
-0.894401 0.692231 0.238352 
-0.862029 0.762204 0.268865 
-0.822719 0.820649 0.290403 
-0.757263 0.856891 0.260444 
-0.674236 0.889596 0.207069 
-0.584384 0.894852 0.136213 
-0.491420 0.883309 0.056661 
-0.394405 0.876054 -0.037293 
-0.282782 0.846397 -0.120512 
-0.183353 0.816527 -0.197152 
0.028816 0.751931 -0.304993 
0.137658 0.718535 -0.323905 
0.237585 0.699718 -0.318570 
0.345605 0.682866 -0.285111 
0.455266 0.651331 -0.250278 
0.576997 0.638282 -0.174024 
0.692919 0.619439 -0.089853 
0.804062 0.590237 0.000015 
0.922891 0.576068 0.086321 
1.012909 0.525619 0.181589 
1.084634 0.464148 0.240808 
1.160628 0.397118 0.300645 
1.212968 0.318439 0.340532 
1.234275 0.242616 0.334803 
1.226773 0.156505 0.308127 
1.166868 0.044067 0.349582 
1.117056 0.026029 0.433397 
1.045189 0.015363 0.504881 
0.968412 0.012058 0.569454 
0.903043 0.016310 0.639524 
0.826664 0.015078 0.690708 
0.747472 0.016037 0.739032 
0.671968 0.031817 0.775692 
0.591159 0.025640 0.819573 
0.498280 0.028898 0.845976 
0.416444 0.031358 0.885540 
0.329126 0.035903 0.912746 
0.242650 0.032193 0.939289 
0.154209 0.029966 0.974306 
0.060815 0.031045 0.994312 
-0.039951 0.126729 1.017785 
-0.037324 0.227365 1.006471 
-0.036122 0.324863 0.985401 
-0.036171 0.418760 0.947844 
-0.031459 0.516383 0.911043 
-0.017388 0.598527 0.837579 
-0.011642 0.678757 0.754545 
-0.009860 0.736021 0.668893 
-0.011344 0.785295 0.575859 
-0.004396 0.817396 0.448994 
-0.016207 0.838013 0.320189 
-0.028976 0.871083 0.206432 
-0.034360 0.860421 0.078484 
-0.044466 0.846679 -0.043321 
-0.057752 0.820374 -0.158209 
-0.134996 0.020633 1.017477 
-0.236876 0.013638 1.000951 
-0.333833 0.005013 0.980457 
-0.428038 -0.004641 0.948909 
-0.520787 -0.008627 0.894719 
-0.603433 -0.011163 0.828025 
-0.678810 -0.005350 0.748589 
-0.743066 0.000178 0.662177 
-0.788151 0.003020 0.561079 
-0.821034 0.008107 0.448729 
-0.847374 0.011321 0.338168 
-0.858346 0.018298 0.218777 
-0.862228 0.034625 0.098894 
-0.851594 0.057549 -0.018727 
-0.822966 0.087995 -0.128877 
-0.028448 -0.068268 1.001654 
-0.021532 -0.161181 0.978774 
-0.018410 -0.254603 0.950208 
-0.006913 -0.343136 0.926246 
-0.002544 -0.422753 0.891763 
0.015331 -0.507176 0.858047 
0.022305 -0.589404 0.815020 
0.013812 -0.662247 0.763571 
0.015650 -0.744740 0.720887 
0.011463 -0.830159 0.677365 
-0.008930 -0.901074 0.634439 
-0.018404 -0.981010 0.586189 
-0.036528 -1.063895 0.522359 
-0.054061 -1.133342 0.450652 
-0.081852 -1.185599 0.363233 
0.772205 0.494918 0.617442 
0.273517 0.439367 0.883307 
0.288681 0.787877 0.140901 
0.973597 0.360602 0.580079 
1.055852 0.294909 0.545018 
1.098925 0.234031 0.530717 
1.172161 0.228151 0.463211 
0.483656 0.739221 0.163781 
0.444453 0.372545 0.836780 
0.241809 0.722750 0.598375 
0.745547 0.638336 0.356995 
0.694009 0.331038 0.751280 
0.818589 0.603393 0.278068 
0.740205 0.221742 0.754985 
0.161739 0.586921 0.792709 
0.167203 0.804216 0.359187 
0.940358 0.521184 0.411337 
0.850313 0.241988 0.721115 
0.094558 0.470566 0.903834 
0.096954 0.835167 0.185639 
0.338616 0.759183 0.381886 
0.337455 0.578012 0.744195 
0.396842 0.722614 -0.112110 
0.359615 0.199673 0.912612 
1.040009 0.442804 0.415857 
0.940668 0.214161 0.655948 
0.050448 0.386642 0.942547 
0.052878 0.847716 0.100978 
0.242431 0.748146 -0.202737 
0.228271 0.147111 0.941119 
1.141030 0.368044 0.399780 
1.013924 0.113473 0.596644 
0.505992 0.637362 0.575042 
0.044680 0.320514 0.971958 
0.044412 0.840510 0.017382 
0.174980 0.749292 -0.232990 
0.175574 0.119404 0.963628 
1.094518 0.138520 0.521818 
1.181476 0.296063 0.413417 
1.168014 0.130659 0.441026 
0.591894 0.482834 0.713493 
0.633491 0.659807 0.442340 
0.478443 0.715980 0.359906 
0.458583 0.522674 0.749440 
0.792080 0.572636 0.476987 
0.743350 0.400304 0.713074 
0.684790 0.548123 0.609252 
0.325956 0.691485 0.591707 
0.264578 0.233505 0.928189 
0.286009 0.754459 -0.104174 
0.347085 0.750556 0.011325 
0.319680 0.325466 0.890585 
0.284966 0.760628 0.493386 
0.283451 0.656765 0.686212 
0.410353 0.735334 0.272150 
0.399186 0.493429 0.795525 
0.213359 0.525344 0.843691 
0.227400 0.813494 0.261654 
0.445983 0.738396 0.037241 
0.403401 0.290118 0.875046 
0.251531 0.590289 0.775081 
0.250716 0.797657 0.378421 
0.171399 0.465524 0.899012 
0.180231 0.828768 0.171868 
0.909656 0.468102 0.524236 
0.902503 0.321069 0.673770 
0.358792 0.406386 0.860265 
0.380771 0.761937 0.139685 
0.315889 0.782009 0.257347 
0.307603 0.507298 0.826682 
0.067569 0.619381 0.785086 
0.080155 0.810500 0.440077 
0.178535 0.779423 0.503491 
0.174101 0.665775 0.702610 
0.039246 0.537511 0.882223 
0.055370 0.836115 0.310849 
0.588681 0.351448 0.787053 
0.635080 0.686724 0.271580 
0.485943 0.678187 -0.153652 
0.430160 0.108539 0.879147 
0.134630 0.839134 0.094609 
0.129946 0.403672 0.938856 
0.178989 0.785522 -0.119585 
0.167814 0.227162 0.958764 
0.363415 0.703003 0.497810 
0.356089 0.628544 0.669105 
0.203392 0.351413 0.931970 
0.210568 0.800318 0.021118 
1.021747 0.232758 0.602731 
1.065248 0.376768 0.488399 
0.119780 0.536531 0.844169 
0.132126 0.822551 0.284972 
0.398544 0.688921 -0.217117 
0.370057 0.094317 0.910792 
0.320072 0.713265 -0.211699 
0.300032 0.125762 0.925299 
0.022267 0.467108 0.920405 
0.028726 0.846610 0.220553 
0.068218 0.815002 -0.092440 
0.063450 0.235852 0.989579 
0.113163 0.316272 0.963876 
0.113527 0.832208 -0.004772 
0.550584 0.559830 0.656179 
0.568026 0.652880 0.495098 
0.492000 0.682486 0.467520 
0.482013 0.571464 0.668502 
0.714329 0.478829 0.672236 
0.745887 0.559553 0.548882 
0.596185 0.590089 0.580992 
0.540508 0.711254 0.081865 
0.488875 0.275749 0.848645 
0.863674 0.528088 0.478908 
0.822672 0.363252 0.697878 
0.650872 0.607246 0.512200 
0.631732 0.515149 0.666497 
0.780925 0.432914 0.669677 
0.663634 0.439896 0.720125 
0.701453 0.623426 0.440323 
0.412794 0.716772 0.409119 
0.415140 0.574305 0.704817 
0.864112 0.422563 0.618202 
0.824735 0.513345 0.547722 
0.962456 0.285835 0.642148 
1.122038 0.291247 0.484892 
0.530541 0.722508 0.285724 
0.496136 0.433149 0.786376 
0.589741 0.424398 0.761608 
0.621116 0.677357 0.361087 
0.438961 0.681735 0.519331 
0.411175 0.643578 0.606188 
0.147854 0.734745 0.612870 
0.563552 0.696069 0.409461 
0.528480 0.502888 0.723145 
0.080638 0.707495 0.687355 
0.076450 0.769510 0.587361 
0.712694 0.657281 0.214928 
0.639012 0.264081 0.797105 
1.201109 0.132112 0.367402 
0.460731 0.193277 0.864756 
0.517543 0.695040 -0.033724 
0.707716 0.118483 0.768536 
0.837439 0.604555 0.136772 
0.786783 0.312755 0.736200 
0.832292 0.576068 0.403103 
0.922217 0.567718 0.261510 
0.797506 0.117846 0.742859 
0.094634 0.123065 0.988527 
0.083051 0.776440 -0.220279 
0.948796 0.102766 0.639030 
1.090511 0.442995 0.345459 
1.020045 0.501079 0.320634 
0.879914 0.122720 0.688409 
0.983314 0.439234 0.484900 
0.538543 0.314511 0.814851 
0.596902 0.697641 0.175857 
-0.004351 0.788125 -0.229172 
0.020663 0.091839 1.005833 
0.020717 0.160714 1.003938 
0.006643 0.811494 -0.152047 
0.728862 0.636617 0.029347 
0.618562 0.107656 0.806083 
0.604948 0.655972 -0.067852 
0.524474 0.108864 0.841393 
0.773501 0.635225 0.151031 
0.665523 0.176282 0.787630 
0.640802 0.676031 0.075800 
0.560492 0.206822 0.829347 
0.884211 0.566698 0.342975 
-0.460552 0.469989 0.906847 
-0.393029 0.869860 0.411344 
-0.882378 0.396436 0.454964 
-0.354615 0.331727 0.984971 
-0.280440 0.294795 1.000280 
-0.250164 0.221985 1.011998 
-0.198603 0.148162 1.016814 
-0.324193 0.809747 0.591806 
-0.814821 0.320622 0.616475 
-0.727275 0.725882 0.543665 
-0.293231 0.653362 0.803340 
-0.651646 0.272594 0.820735 
-0.184616 0.658949 0.808632 
-0.659626 0.180432 0.804256 
-0.590063 0.856279 0.403145 
-0.858917 0.599521 0.443358 
-0.212663 0.554979 0.894414 
-0.525921 0.213842 0.932934 
-0.481567 0.887683 0.236220 
-0.892126 0.500143 0.281285 
-0.789188 0.539663 0.605753 
-0.535998 0.783204 0.582737 
-0.167445 0.863259 0.359557 
-0.874120 0.160143 0.389648 
-0.181240 0.478206 0.950776 
-0.461857 0.154402 0.965322 
-0.416840 0.887105 0.114683 
-0.892921 0.437780 0.166627 
-0.142893 0.886724 0.146845 
-0.881179 0.140284 0.181511 
-0.395791 0.088843 0.991946 
-0.122281 0.383239 0.974748 
-0.605400 0.605933 0.769006 
-0.350973 0.882186 0.038791 
-0.896088 0.375988 0.104501 
-0.122773 0.868428 0.053355 
-0.875203 0.129797 0.088289 
-0.275413 0.120234 1.013462 
-0.144287 0.249728 1.011524 
-0.197166 0.074007 1.018854 
-0.437182 0.653971 0.800044 
-0.642001 0.422823 0.806827 
-0.473414 0.749057 0.681088 
-0.743575 0.464636 0.698875 
-0.564556 0.342812 0.889551 
-0.354909 0.578514 0.880941 
-0.517182 0.512703 0.861713 
-0.688427 0.697612 0.638990 
-0.199585 0.875980 0.251978 
-0.886648 0.196916 0.298752 
-0.287150 0.865863 0.392571 
-0.876212 0.282662 0.435724 
[...]
POINT_DATA 2044
SCALARS u float 1
LOOKUP_TABLE default
6.940706
6.871319
6.780374
7.724826
0.954904
5.512732
3.921378
2.580842
2.763620
3.988845
5.565173
6.846623
7.392502
7.105882
6.103356
4.771958
3.461205
3.242043
4.374812
6.049684
8.929814
9.619010
9.396683
8.546026
7.495355
5.018717
3.099966
2.277871
3.449629
5.344842
7.045224
8.260351
8.630479
8.353772
7.847877
5.152814
3.697466
3.095130
3.448803
4.663409
5.800835
6.394695
6.843998
6.172802
5.055247
3.651875
2.657943
2.819879
4.130046
5.750293
8.154040
8.658042
8.496065
7.720999
7.011484
5.369205
3.854751
3.125124
3.756507
5.318753
6.479750
7.881020
8.787137
8.697599
8.023506
6.333258
5.674936
4.785733
3.959304
3.503403
2.800150
2.241119
1.715813
1.410105
1.353857
1.304238
1.346595
1.237714
1.051634
0.997341
1.114227
1.144841
1.184126
1.161298
1.278870
0.961995
1.017548
1.006858
1.252823
2.214252
3.257543
3.833195
4.842068
5.703393
6.493209
0.984867
0.995255
1.023772
1.070372
1.064940
1.013930
1.048956
1.184350
1.541910
2.215551
2.842107
3.652301
4.452139
5.275899
6.135619
0.857519
0.827694
0.837854
0.827660
1.022715
1.179258
1.347384
1.511125
1.900218
2.517764
3.383500
4.366544
5.312389
6.225538
6.927181
3.423838
1.941578
5.145327
5.748480
6.810135
7.179592
7.980980
3.484308
2.086463
2.028599
1.535878
2.753628
2.337198
2.859673
1.565329
3.712713
4.642638
4.236895
1.389545
5.016310
3.098270
1.848652
6.526158
1.665726
6.200930
5.038703
1.224981
5.375790
7.775501
1.349026
7.712171
5.353295
1.649171
1.226644
5.959940
8.046837
1.240753
6.534848
8.385052
7.303803
2.447089
0.832805
2.210978
2.021654
2.855849
3.508250
2.441956
2.040845
1.645099
6.982965
6.061711
1.840598
2.575325
1.728358
3.513526
2.008185
1.713887
4.373604
4.847172
1.883113
1.611280
3.408060
1.737362
5.075908
4.631328
5.193008
1.983420
4.639017
4.073777
1.874548
1.353806
2.769639
2.475398
1.673577
1.305344
3.751089
2.315746
0.739363
6.043018
1.623752
5.631746
1.556398
7.306945
1.336979
2.444626
1.849347
1.743300
6.233694
6.328867
6.773374
1.544428
4.252917
7.190452
1.364086
7.602719
1.432078
1.261020
4.368264
6.869213
1.285184
1.266025
6.339271
1.977860
1.211081
1.599038
1.820839
3.128979
2.708553
1.591310
3.539938
2.008799
3.822691
4.250956
1.340119
2.397737
3.737281
2.902871
1.279549
2.634637
1.791767
4.440749
3.648545
5.774745
7.651484
2.005742
2.250092
2.557155
0.608596
1.921748
1.843127
1.968047
1.057133
2.114879
1.446690
1.770197
0.974540
2.457328
7.630937
1.829708
4.785977
2.363713
2.556046
3.690675
3.180169
3.973121
3.187805
1.110297
7.807595
4.453777
6.847841
5.751316
3.889957
5.521698
2.225582
2.111109
7.465814
1.059692
1.109292
6.939731
2.592705
1.881353
4.266609
1.670549
1.731862
2.321454
2.606793
2.066103
3.590732
2.870384
1.554748
2.471402
2.078210
1.655039
1.425808
1.155530
1.538135
2.054430
5.646725
1.734044
2.084471
1.238897
1.301114
4.219779
5.065826
1.535151
2.001793
2.450041
3.434660
4.251650
3.759041
1.474483
0.804313
1.645451
1.721514
1.843632
2.610301
3.169750
2.612514
1.546408
1.260810
4.252540
2.321984
2.371417
4.180554
3.548749
1.322243
1.275183
1.114001
3.114653
3.213795
3.299609
3.627602
2.630982
2.584822
3.257802
5.361736
1.903869
1.043901
0.404662
0.945681
5.112488
5.348277
2.784526
3.377174
3.088413
4.027262
0.218931
0.815482
4.853978
4.226032
3.015843
2.163815
2.016818
2.320554
2.281059
1.565699
3.500633
2.699705
5.749141
5.085057
5.924894
5.440026
3.755880
4.691540
2.223867
1.765087
2.239613
1.657653
1.463586
2.213147
2.623983
1.851628
5.029080
4.656519
1.295797
0.982104
1.683592
4.411307
3.440913
2.884679
2.301950
2.974822
2.395657
3.739064
2.780337
3.248990
2.744469
1.721988
1.882087
3.802241
3.901349
4.201134
3.938583
2.860309
3.007324
3.753187
0.250459
0.878066
2.435049
2.183915
3.419232
3.206606
2.575014
2.978591
2.889378
1.678992
3.936498
4.146743
2.408027
2.807011
1.499422
2.488167
2.793565
2.657974
2.930674
4.524255
4.780560
6.206750
3.569406
3.445167
6.428626
6.403788
1.203908
1.003224
0.445151
0.986194
0.590525
0.720421
2.021948
2.124908
1.344020
0.838140
4.772151
4.280280
1.408717
1.388689
1.116273
1.352026
1.638903
1.045941
5.389783
5.810708
4.199824
4.750786
2.059665
0.725135
0.521048
1.233160
0.933949
0.911627
0.549530
0.791207
0.388596
0.266163
1.136560
1.059949
1.393345
5.527255
5.558834
1.091327
1.007755
1.008886
4.148039
3.926943
0.445136
2.056771
1.749447
1.795929
1.934685
4.310267
4.058514
1.577771
1.213862
6.864587
7.128457
2.870138
3.351499
4.675121
5.222418
1.085367
0.966925
7.998988
8.475091
5.701317
6.423864
0.998988
0.914900
1.280474
8.115464
9.049785
6.024102
6.840092
0.995636
0.959191
2.013036
1.758633
3.079255
2.693052
1.328303
1.650821
1.320967
0.857382
5.793770
6.418140
5.377592
5.795652
2.133273
1.523036
3.933144
3.822093
5.077074
4.992489
4.531500
4.790981
3.294272
3.688387
6.406479
6.215016
1.342777
1.108042
4.883790
4.911718
4.415614
4.600681
3.779516
4.395372
1.858623
2.623102
6.146599
6.361168
2.340272
2.602939
3.150249
3.909127
7.053838
7.328976
6.820177
7.750508
1.126187
2.191539
7.015042
6.429697
1.069113
0.983356
5.637555
5.563201
3.646142
4.439125
4.737281
5.511806
7.676276
7.375347
7.736075
8.792879
8.376600
7.554277
1.966005
1.648219
1.908921
2.238012
1.711916
1.293879
1.318017
3.397622
3.705012
1.344095
1.571739
1.495854
1.605466
1.580617
2.040941
1.559202
2.819198
2.310188
1.257910
1.231531
3.265844
2.904379
2.685708
2.005830
1.086913
1.316045
1.347814
0.743374
2.158287
2.462698
1.452551
2.012341
2.321360
2.262040
3.943625
3.389370
1.574306
1.858528
1.783740
1.623362
1.484169
1.432097
6.852563
7.730368
1.030401
0.943888
1.189050
1.216143
2.890813
2.966504
8.011224
7.135797
8.758657
7.678304
1.078647
1.871150
2.122777
2.710231
2.434314
1.475982
1.910150
2.230548
2.673826
2.692133
0.928525
0.782395
0.847050
0.813993
3.774485
2.030139
2.031387
0.901429
0.998642
2.031138
3.339251
4.981792
4.798393
2.414125
2.360197
6.143506
1.623446
6.330986
0.767029
0.664765
1.960674
4.628447
0.540702
1.872687
1.413832
3.123350
3.327280
3.509893
1.601162
1.326257
2.762340
3.178477
1.026572
2.092786
1.177321
2.000559
2.741626
4.432299
3.935133
1.026615
2.973828
1.075250
1.852241
3.143874
5.279454
3.196087
4.789768
3.445220
2.146282
5.268957
4.584886
2.942436
1.755448
1.453351
2.751906
2.014782
2.557152
2.872235
4.056147
3.003770
1.056409
2.174254
4.157416
2.002706
2.638225
1.891170
1.480134
0.249306
2.867505
1.011176
2.443387
3.480518
2.668749
2.900473
1.192119
1.158508
1.852655
1.205356
2.326174
1.074291
1.936353
5.958787
5.037773
1.249221
1.377894
1.321185
2.118122
1.188819
3.411273
3.320536
1.550552
0.706474
1.394862
1.041571
1.703479
0.901689
3.813232
1.289915
2.705781
1.302925
1.018210
3.031649
4.243984
0.940446
1.254337
2.543091
4.966745
4.118375
3.871762
4.835962
5.019511
3.180837
4.492352
5.487393
1.635731
1.219186
4.485702
3.639643
4.821966
4.362959
5.336279
2.724345
4.271218
3.462756
2.881068
2.439990
5.108505
2.877871
5.636448
2.576292
1.789917
3.856958
3.839137
1.400658
3.473605
5.273740
1.105252
0.979146
1.241086
6.686322
1.479663
5.381699
7.261874
1.337484
5.413557
1.091366
0.932819
6.068358
4.564625
0.948508
2.710267
3.161997
4.506985
1.899591
1.785502
5.773536
0.911690
6.209268
0.863691
5.739219
0.201941
7.212524
1.033831
6.329585
1.091389
1.975808
7.266819
0.761664
1.200743
6.354251
3.558694
4.774061
1.159777
3.144466
2.480431
2.028419
2.984420
2.146827
3.161372
3.099694
2.828485
3.145209
3.129697
1.883032
1.091356
1.612357
5.028820
3.974445
0.895771
5.510202
3.722554
3.896176
4.550406
1.319102
5.632699
3.696214
3.039016
6.405969
2.958760
4.714774
2.255366
1.979736
5.599602
3.530345
4.895175
3.798622
5.431800
2.564991
1.681774
1.842342
2.690496
2.572867
2.112637
3.097429
1.186231
1.722850
6.324343
6.040909
5.247086
2.873389
1.619473
5.097083
1.336180
3.190161
2.864626
5.946328
7.199639
4.623897
1.202398
1.180058
4.357556
4.482590
3.898155
2.552395
1.197091
6.966399
3.430893
2.843132
3.048230
2.364937
0.929644
3.277348
6.582332
3.307691
5.526705
5.010456
4.391977
4.455235
2.680649
3.151242
4.808275
2.416128
2.108661
1.649233
2.011037
4.416702
2.925957
4.106028
2.835438
1.717892
1.859417
5.102272
1.165001
3.108442
5.414433
7.293613
3.347925
5.315464
3.379681
1.418913
5.227105
1.688752
2.136228
7.365211
1.976859
3.159888
1.392998
1.719958
4.074906
6.770389
2.385022
3.052208
7.933859
3.240185
4.173244
4.062898
5.686843
4.159648
3.539257
1.650792
3.805983
2.351096
3.497348
0.953564
1.319730
6.607259
7.362655
3.311589
1.177398
4.589929
2.392305
3.166327
3.129770
2.842766
4.583597
6.890096
4.474160
4.002523
1.879789
1.433930
2.626911
4.710605
2.837907
3.974014
5.577746
2.582764
6.530592
4.543916
2.614329
3.220198
1.317818
2.317764
3.825186
5.554890
2.801282
2.600116
2.098032
2.413821
1.042001
1.587267
3.954739
4.452843
1.115518
4.977500
5.818196
2.538790
5.368813
6.794674
2.738715
3.097116
5.424770
3.323958
2.508711
3.253461
2.535799
1.324982
2.819309
2.277134
1.129738
1.630065
3.410974
4.895487
4.137361
6.557834
3.359089
4.760810
5.427016
7.438148
8.588129
1.202271
2.013762
2.692414
3.948685
2.748247
4.190652
1.203202
5.532720
1.543328
4.494374
6.599387
3.853342
2.855710
4.522118
5.662416
2.602176
2.648532
1.349529
1.046876
3.079827
5.475512
7.479697
3.147088
5.654217
3.126319
4.132979
4.474865
5.587467
6.988696
6.640604
3.208219
3.913749
1.118234
4.242783
2.519355
4.350857
3.389663
2.802757
6.662079
7.329935
2.635983
1.246467
1.218034
3.934512
3.645575
7.491526
2.769084
5.959176
3.905897
6.588938
6.320424
8.289099
2.304913
4.932293
7.904110
3.411208
7.682748
2.313720
3.329452
3.623330
4.574075
3.504532
5.741748
6.023616
2.587561
1.927335
1.632808
2.145445
2.678736
2.633366
5.094532
1.982345
3.240554
1.820636
3.242359
5.306587
1.418024
3.363113
3.482303
0.879134
1.431443
3.398184
1.722837
1.764502
5.887082
3.711072
4.983606
5.231556
4.246508
2.718117
6.333114
4.356740
6.037882
3.061361
6.088533
3.306333
3.415309
3.732085
2.510264
2.017895
7.711967
1.115032
1.485175
4.821513
2.302928
3.938372
2.281770
4.491880
1.593084
3.199069
2.562319
4.882789
5.407239
4.540470
1.885109
2.188806
2.061324
7.790268
6.763702
2.722922
2.552947
1.157364
6.458784
2.389357
2.595089
2.490669
0.973276
1.764747
1.388587
2.191933
1.115885
6.026013
3.513943
3.539257
5.429671
4.352016
2.794053
6.596953
3.748534
4.563900
2.698123
4.472003
3.296347
3.169010
3.925297
2.692004
4.780029
6.778932
3.950139
1.727388
1.828538
3.794844
4.107162
5.704793
2.189378
3.295049
3.125698
3.725656
2.861974
1.279504
5.845669
2.554390
4.182290
2.176850
6.561320
3.058558
2.878911
4.620720
1.949549
4.711839
0.849832
3.478114
4.276725
2.371896
6.024487
1.947863
1.296028
5.820589
3.137282
1.221904
1.744517
2.748433
4.226285
3.647263
1.354508
3.599127
5.573353
5.185383
7.143411
3.482096
7.915062
6.104010
5.728497
3.030535
2.186205
4.599515
4.312041
8.073614
3.868469
4.033688
4.152921
1.072675
2.927346
5.172488
2.529156
3.804904
3.692268
1.478427
1.291272
4.675359
1.621020
0.940520
3.242971
2.697881
1.674328
1.560770
0.503714
0.448165
1.674774
3.828229
4.331909
0.623801
2.610803
1.471181
1.449595
0.822031
1.602565
0.851856
3.508284
1.814827
2.947043
3.855759
2.276438
1.333028
1.431120
0.394421
0.584400
1.355240
0.647273
2.401645
4.817859
4.285263
1.301123
1.820021
1.248065
0.831640
1.023200
1.077792
0.985765
0.971402
0.797411
0.732233
0.768544
0.516941
1.316382
1.338294
1.206477
0.466368
0.918045
0.876067
1.804039
1.127256
1.076785
1.092646
0.692904
0.732547
0.444674
0.978360
0.528337
0.450518
0.148877
0.667167
3.151313
3.108874
3.933227
0.672923
2.042915
1.894142
2.307654
2.404828
2.306917
1.215209
1.368904
2.376997
3.500642
3.265101
4.504561
2.023780
2.309420
4.356762
0.987805
0.664242
0.826372
0.928478
0.297760
2.154002
2.256078
1.797034
2.428799
2.775457
3.629935
3.677279
3.655837
2.515964
3.133825
2.312758
3.477930
1.690505
2.665163
1.498462
1.072801
1.093088
2.337202
2.202212
1.504557
1.081467
0.672999
0.780589
1.752762
1.830390
3.256379
3.181448
3.595946
3.008427
3.693288
2.117861
2.281461
2.540757
2.954462
2.555448
1.683576
2.506496
2.615499
2.077302
1.213159
1.541866
3.528853
4.278129
0.812349
0.426419
0.380757
0.616946
0.885695
0.368028
1.004553
0.631817
0.907636
5.178602
2.633942
3.584864
5.452739
0.706193
1.335946
1.208389
1.154409
1.074163
0.823202
1.137849
0.797670
0.386539
4.357972
5.396572
2.759927
1.339935
1.922200
4.250711
1.451817
1.362321
1.780564
0.888183
0.812997
4.178111
2.172160
0.955519
1.543223
1.231617
0.984156
0.281257
1.226044
1.491456
1.047105
2.828851
2.249025
1.536390
2.246012
1.121188
4.878867
4.234057
2.979840
1.486514
0.799503
4.859801
2.085604
1.159622
3.779234
5.489615
0.641173
2.102191
1.589422
4.729798
0.857608
1.435094
0.653425
2.687692
4.047096
4.018075
1.117152
5.752885
4.696681
5.299914
6.453616
1.992723
1.062442
0.990169
0.956732
0.608322
1.120530
1.001629
1.156444
1.905295
1.075544
2.631268
4.282117
2.428051
4.425305
2.700292
2.486229
1.243192
3.875398
3.405620
2.391691
0.606126
1.401283
1.110460
1.726127
2.304754
2.981899
1.117293
2.482351
1.165580
2.735232
1.187201
0.662523
0.511120
1.859001
2.026233
2.147081
3.618421
2.538163
2.278703
1.406356
2.323296
0.584468
0.880917
1.562425
1.315091
1.400207
1.268950
0.786009
0.912714
0.923580
1.402591
1.939574
0.705829
0.366833
1.384357
2.018274
0.229828
0.773103
1.575206
0.914389
4.745363
2.562465
0.203195
4.505909
4.020585
1.983258
3.776492
3.287287
3.070361
3.120304
4.458700
4.073930
2.802693
4.856900
1.977743
4.258614
0.953117
5.015421
3.537380
3.157486
6.220566
4.375874
4.359608
6.998240
5.496734
1.036504
0.918693
0.908564
0.808790
0.870705
0.907202
1.025680
1.275524
1.377778
2.121578
3.188259
0.834723
2.911343
1.470482
1.153977
0.163751
4.320547
4.821396
3.636422
6.061834
5.753654
4.099788
6.429689
4.645789
3.344209
4.100572
3.878702
2.531901
1.966361
3.490911
3.323890
2.349659
4.033415
2.463540
1.662897
3.591682
0.771865
0.475209
1.204382
0.983585
1.109419
1.294984
1.615802
2.275517
1.935807
0.816181
2.329770
1.793353
0.724955
6.317813
0.654807
0.885466
1.191389
0.595384
1.039190
0.915657
1.304077
0.878295
1.750972
0.588058
1.873101
1.396021
1.028911
1.121425
0.741256
1.836363
0.950139
2.599686
2.198305
2.243611
5.216183
0.741813
1.016390
1.462257
1.151110
0.747871
1.294606
2.570124
2.018515
2.569569
1.805774
1.993301
0.540183
0.687642
0.984648
0.727132
2.177252
2.534782
2.411952
1.079984
0.905813
1.409342
0.818959
3.627349
2.101221
3.798249
2.799257
2.671802
2.372832
1.312806
1.129298
1.078135
1.290254
1.330574
1.617161
1.202156
3.065966
2.744046
2.328335
3.407721
4.560273
1.684368
1.856139
1.401618
2.263094
1.741208
3.823907
2.922028
3.870599
2.076205
3.789795
2.648280
3.693195
2.522597
2.848395
2.193249
2.209867
3.203349
1.676460
2.613688
2.029030
2.155849
1.429014
1.498865
2.056503
2.808098
2.193446
2.362257
2.385354
3.911956
1.804405
1.931459
2.117676
1.433179
2.109777
1.446610
1.056111
2.963915
1.181660
1.206432
1.960770
1.718913
3.261926
1.230971
1.896746
2.636122
1.231135
2.654024
4.298295
0.997343
1.147411
0.807367
0.080643
2.189620
1.466457
4.813606
5.328916
4.054657
3.338058
1.964638
2.168053
1.198001
2.376832
0.866334
5.288513
2.912138
2.322794
4.079472
1.301219
1.121138
1.075786
0.931877
2.118904
1.541206
5.312148
2.018234
3.001713
3.244226
4.026094
0.932026
1.447593
1.112566
3.185217
3.101312
2.763129
2.066048
2.397968
1.503305
1.880350
1.341886
1.640324
1.103492
1.100680
3.212641
4.104063
3.530962
2.107838
2.788614
3.232956
2.639707
1.816689
2.023225
1.907488
1.992770
1.307043
2.912894
1.436100
3.468678
4.148869
4.643974
4.274076
4.783737
2.100282
0.843675
2.476049
1.854644
1.329862
3.929776
4.160651
5.071894
3.087569
3.906670
3.920671
2.286663
2.639633
0.851714
0.754961
0.659447
1.031711
0.730729
0.611949
2.523129
2.532103
2.174929
1.959069
2.970114
2.297780
2.300484
2.352623
2.207931
2.337391
3.119327
3.932450
2.478847
1.688206
1.128765
1.440239
1.536174
1.196685
1.039783
1.260589
1.856338
4.699464
2.448351
1.042939
1.054641
0.944474
5.867553
2.661220
1.515688
2.501756
2.717783
2.579605
2.014145
1.764161
3.026401
2.227142
3.640554
3.062310
1.872844
2.248889
2.630024
2.991452
2.692872
3.221252
4.210039
2.555195
4.687256
4.062331
5.135198
5.098268
1.586952
1.249761
4.069411
5.427489
4.514533
5.986159
5.546003
3.671164
2.692281
3.032422
1.190688
1.318287
1.282642
1.296428
1.439388
1.205309
1.228321
1.034751
4.566134
4.834862
4.719940
1.893447
4.509133
3.897940
4.365270
1.952862
1.774740
1.459824
3.580313
1.470383
1.090170
2.309548
1.487342
1.300666
3.621287
3.748917
2.598228
2.092003
1.568771
1.021925
2.115427
1.691931
6.413568
6.242602
2.031261
1.504638
3.425318
4.022486
3.477055
3.617571
2.888567
1.758914
3.717155
3.193227
2.356464
0.877698
0.950996
0.685114
2.891811
2.925257
1.083120
2.284303
1.601112
2.762630
3.567406
3.356318
1.750987
1.827042
3.541830
3.873995
2.970710
3.352375
4.387361
4.648910
3.930263
4.298454
1.703128
1.880032
1.971725
1.958991
0.921313
2.344241
2.092292
1.620527
4.393178
3.755409
2.761713
5.012394
4.972614
1.810401
1.378727
2.023503
1.929486
1.345400
1.139180
1.079646
2.540528
0.749689
2.742916
1.818759
1.544850
2.470386
2.103256
1.602875
1.680167
0.924563
0.869210
1.449569
3.299078
2.752552
5.116369
0.701547
2.711549
1.981788
2.100456
3.229258
0.830402
0.865403
0.936816
1.525121
1.388380
1.646211
1.238881
0.906101
1.215220
1.036539
1.727749
1.474746
1.974351
3.020570
3.189300
5.470481
4.813788
3.494220
1.541401
5.940553
5.319562
4.477357
1.326886
2.227067
1.549718
2.305843
1.960600
6.053682
5.037549
2.342376
1.924670
4.382028
2.497880
1.931571
2.030724
1.601577
1.148181
4.985051
5.219231
3.745851
1.744404
1.033924
1.205353
0.868436
0.660875
1.701248
1.309394
2.274591
1.174786
1.170049
3.097217
2.616129
3.382128
1.440465
1.904492
2.081950
2.301675
2.214160
2.334222
3.639798
3.695216
1.948327
3.342452
3.106512
0.438666
0.244069
0.692894
0.565907
0.278261
0.304406
0.231335
0.651225
0.064019
0.607626
1.473522
1.342334
2.065559
0.449011
1.149716
0.350946
0.749163
0.968504
0.957459
1.958892
1.880242
1.600941
1.337205
1.041562
0.611652
0.972382
0.696973
0.979200
0.871575
0.499554
0.257188
0.327406
0.336653
1.002885
0.727274
1.478974
0.855534
1.847114
1.795491
0.513870
0.183322
0.631636
0.337500
0.428984
0.343871
0.295921
1.068783
0.584262
1.682713
2.389005
1.714213
2.139583
1.818602
1.406700
2.067801
0.411134
0.608413
0.632935
0.812368
0.408760
0.825152
0.792160
1.308776
0.751379
1.457145
0.573603
0.813630
2.294002
2.071790
0.819946
0.915997
0.997223
0.598368
2.463994
1.951798
0.918343
1.232821
2.330232
1.675699
2.015623
1.862758
0.454693
1.083343
2.068200
1.118967
2.150346
1.389028
2.764015
2.427062
0.202309
0.389976
2.868718
2.228566
