# vtk DataFile Version 2.0
Unstructured Grid Example
ASCII
DATASET UNSTRUCTURED_GRID
POINTS 2044 float
1.114225 0.039617 0.143474 
-0.044454 0.887747 -0.141155 
-0.890031 0.070358 -0.128650 
-0.062439 -1.127493 0.153140 
-0.019568 0.015655 1.006192 
1.090190 -0.053742 0.105928 
1.055852 -0.146565 0.056981 
1.003062 -0.238405 0.006963 
0.941549 -0.326295 -0.045707 
0.872202 -0.407275 -0.086142 
0.794049 -0.483223 -0.126480 
0.722468 -0.559098 -0.161338 
0.632042 -0.636462 -0.171197 
0.548042 -0.716995 -0.162182 
0.471234 -0.790728 -0.135823 
0.390114 -0.866980 -0.099045 
0.305405 -0.939925 -0.050247 
0.213127 -0.998494 -0.000777 
0.120421 -1.054863 0.054059 
0.030118 -1.099682 0.105895 
-0.162204 -1.136552 0.184838 
-0.252873 -1.130989 0.204233 
-0.335849 -1.103511 0.202393 
-0.419335 -1.057282 0.185011 
-0.489468 -1.001019 0.162916 
-0.555416 -0.921810 0.101212 
-0.610508 -0.838944 0.045874 
-0.659263 -0.745258 -0.006853 
-0.703868 -0.651552 -0.060171 
-0.736483 -0.544955 -0.108351 
-0.766653 -0.444394 -0.149178 
-0.794057 -0.338506 -0.176223 
-0.823124 -0.235867 -0.183196 
-0.848391 -0.138881 -0.174088 
-0.866782 -0.036971 -0.157452 
-0.909677 0.166324 -0.086166 
-0.920976 0.267567 -0.034060 
-0.920024 0.364272 0.012781 
-0.905983 0.455082 0.055943 
-0.893610 0.545551 0.101272 
-0.866480 0.631598 0.132601 
-0.822533 0.705497 0.149576 
-0.771425 0.770273 0.161558 
-0.702749 0.819675 0.144891 
-0.621587 0.863807 0.115197 
-0.534254 0.889115 0.075779 
-0.443176 0.901309 0.031522 
-0.348209 0.911941 -0.020747 
-0.243875 0.906022 -0.067043 
-0.145491 0.895793 -0.109680 
0.059519 0.859857 -0.169675 
0.163139 0.834890 -0.180195 
0.260967 0.813842 -0.177228 
0.362056 0.789798 -0.158614 
0.462423 0.753639 -0.139235 
0.567490 0.723995 -0.096813 
0.666953 0.687575 -0.049987 
0.761045 0.642090 0.000008 
0.856393 0.601945 0.048022 
0.932408 0.538908 0.101022 
0.994695 0.467364 0.133967 
1.055588 0.390713 0.167256 
1.099375 0.305947 0.189446 
1.121807 0.221530 0.186259 
1.124023 0.130555 0.171418 
1.090696 0.024515 0.237968 
1.056596 0.014481 0.327666 
1.006035 0.008547 0.409670 
0.948654 0.006708 0.486588 
0.893672 0.009073 0.564930 
0.828796 0.008388 0.630750 
0.758803 0.008922 0.692606 
0.687558 0.017701 0.745262 
0.610341 0.014264 0.798914 
0.523699 0.016076 0.839540 
0.440825 0.017445 0.883934 
0.352888 0.019973 0.917686 
0.263785 0.017909 0.947121 
0.172347 0.016671 0.977181 
0.077321 0.017271 0.994699 
-0.022226 0.113990 1.007758 
-0.020764 0.213045 0.995075 
-0.020096 0.309522 0.972774 
-0.020123 0.402754 0.937212 
-0.017501 0.496424 0.898122 
-0.009674 0.579468 0.834868 
-0.006477 0.659074 0.762738 
-0.005485 0.723192 0.685848 
-0.006311 0.779845 0.601830 
-0.002446 0.823640 0.496279 
-0.009016 0.857494 0.387276 
-0.016120 0.894508 0.284631 
-0.019115 0.903245 0.172455 
-0.024737 0.906179 0.062457 
-0.032129 0.897934 -0.044527 
-0.118589 0.011479 1.007587 
-0.218337 0.007587 0.992004 
-0.314512 0.002789 0.970023 
-0.407915 -0.002582 0.937804 
-0.498874 -0.004800 0.889041 
-0.582197 -0.006210 0.829554 
-0.659103 -0.002976 0.759424 
-0.727112 0.000099 0.682111 
-0.781433 0.001680 0.593607 
-0.825664 0.004510 0.496132 
-0.862702 0.006298 0.397279 
-0.887422 0.010180 0.291499 
-0.904250 0.019263 0.183810 
-0.908913 0.032016 0.076139 
-0.899376 0.048954 -0.028209 
-0.015827 -0.081467 0.998784 
-0.011979 -0.176226 0.979666 
-0.010242 -0.270434 0.953195 
-0.003846 -0.360682 0.925196 
-0.001415 -0.444335 0.887396 
0.008529 -0.528647 0.846255 
0.012409 -0.609365 0.796381 
0.007684 -0.682150 0.738519 
0.008706 -0.757283 0.682512 
0.006377 -0.830741 0.623327 
-0.004968 -0.892576 0.562101 
-0.010239 -0.955663 0.495898 
-0.020321 -1.016442 0.419393 
-0.030075 -1.065656 0.337265 
-0.045536 -1.101117 0.245563 
0.770612 0.473301 0.546883 
0.302361 0.410341 0.874501 
0.310797 0.821411 0.244297 
0.937563 0.343757 0.462707 
1.001518 0.282917 0.409154 
1.034948 0.221757 0.390311 
1.083145 0.213952 0.316655 
0.499445 0.762735 0.233353 
0.477635 0.349493 0.817009 
0.257667 0.703483 0.634291 
0.735593 0.633977 0.325717 
0.706921 0.311277 0.696810 
0.789988 0.614837 0.238195 
0.749184 0.204831 0.696384 
0.182911 0.563411 0.804450 
0.185951 0.810852 0.436718 
0.894563 0.513768 0.322649 
0.840833 0.226947 0.631520 
0.113065 0.447140 0.901369 
0.114398 0.863167 0.288628 
0.367303 0.757113 0.442171 
0.366658 0.551280 0.748774 
0.408689 0.798056 0.006056 
0.387979 0.179508 0.903756 
0.973363 0.436778 0.300128 
0.918340 0.198061 0.550867 
0.068674 0.367878 0.938919 
0.070025 0.886162 0.208956 
0.260293 0.838858 -0.062910 
0.252415 0.131718 0.946213 
1.049602 0.357256 0.261331 
0.977478 0.104928 0.487475 
0.532064 0.613485 0.578815 
0.062645 0.302392 0.965016 
0.062496 0.891888 0.133753 
0.197125 0.847495 -0.091709 
0.197455 0.104336 0.966735 
1.037633 0.125845 0.393556 
1.083735 0.282892 0.261922 
1.087088 0.115678 0.306788 
0.618334 0.458294 0.674998 
0.641475 0.645131 0.435766 
0.498918 0.717039 0.402937 
0.487870 0.493489 0.735654 
0.779121 0.561555 0.417827 
0.750052 0.376364 0.641644 
0.693553 0.527574 0.561582 
0.352063 0.671826 0.621163 
0.292885 0.212158 0.927294 
0.304808 0.830645 0.024299 
0.366552 0.807582 0.127285 
0.351306 0.302049 0.885483 
0.307028 0.744649 0.541765 
0.306185 0.632656 0.703250 
0.436035 0.751979 0.341438 
0.429823 0.464541 0.785464 
0.239864 0.499632 0.842413 
0.247675 0.825614 0.352935 
0.459737 0.785218 0.129644 
0.436047 0.270325 0.861240 
0.275243 0.565577 0.780886 
0.274789 0.793445 0.447710 
0.197543 0.439553 0.892315 
0.202456 0.853237 0.276185 
0.881158 0.452978 0.429747 
0.884105 0.299233 0.565519 
0.390513 0.380389 0.848169 
0.402741 0.793467 0.232018 
0.340897 0.796610 0.340260 
0.336288 0.479313 0.821462 
0.083766 0.598574 0.797597 
0.090768 0.811735 0.498823 
0.192202 0.769911 0.554193 
0.189736 0.644475 0.727178 
0.056256 0.515877 0.876342 
0.065225 0.850691 0.389780 
0.613372 0.329766 0.749467 
0.639185 0.693652 0.285336 
0.491848 0.760318 -0.052696 
0.460814 0.093167 0.872116 
0.155428 0.874161 0.208983 
0.152822 0.380922 0.929639 
0.197193 0.861649 0.017120 
0.190976 0.210023 0.958027 
0.394957 0.692938 0.538814 
0.385021 0.605021 0.683218 
0.230680 0.326314 0.925814 
0.234672 0.852573 0.142563 
0.980342 0.219500 0.473402 
0.999174 0.364480 0.358760 
0.143082 0.513505 0.850120 
0.149950 0.838093 0.373557 
0.410096 0.784158 -0.095353 
0.394248 0.077905 0.907590 
0.336044 0.809691 -0.080127 
0.324895 0.107611 0.927650 
0.039374 0.447202 0.913322 
0.042967 0.872268 0.310038 
0.087016 0.885522 0.036418 
0.084364 0.219054 0.982643 
0.133028 0.298984 0.956704 
0.133231 0.883454 0.120380 
0.577731 0.532879 0.637340 
0.587434 0.635505 0.496868 
0.517308 0.671895 0.488394 
0.511752 0.546220 0.664115 
0.722659 0.454606 0.609833 
0.743571 0.542962 0.492944 
0.616675 0.568720 0.563659 
0.548279 0.749473 0.147463 
0.519555 0.255323 0.825907 
0.839492 0.517127 0.400891 
0.816888 0.339194 0.609638 
0.662256 0.591594 0.490751 
0.651608 0.492391 0.624556 
0.780887 0.409354 0.592628 
0.681647 0.415121 0.665553 
0.702686 0.611757 0.415359 
0.442968 0.712893 0.457084 
0.444273 0.548981 0.706242 
0.849701 0.401030 0.526039 
0.811777 0.495927 0.472120 
0.932974 0.265670 0.522887 
1.046369 0.279815 0.338763 
0.548086 0.726426 0.325051 
0.528946 0.407067 0.761956 
0.615424 0.399727 0.719527 
0.632879 0.672656 0.364505 
0.468874 0.665398 0.542885 
0.441264 0.623309 0.622396 
0.159860 0.717678 0.649812 
0.577069 0.685217 0.424257 
0.557558 0.476233 0.700280 
0.087508 0.688500 0.711119 
0.085505 0.756435 0.622052 
0.700101 0.673766 0.218259 
0.658993 0.245439 0.751721 
1.109470 0.110112 0.232559 
0.492889 0.175684 0.850185 
0.524495 0.755768 0.049400 
0.723156 0.103435 0.722364 
0.794948 0.631472 0.114266 
0.784768 0.292442 0.659298 
0.810512 0.571693 0.338243 
0.869048 0.575981 0.194865 
0.799499 0.107740 0.674911 
0.113856 0.108836 0.987516 
0.107412 0.869528 -0.082174 
0.926964 0.091550 0.546204 
1.005636 0.437806 0.224778 
0.949063 0.501453 0.218973 
0.870768 0.110353 0.605970 
0.936789 0.427864 0.375920 
0.569270 0.292093 0.785603 
0.601757 0.720368 0.214989 
0.024454 0.880494 -0.100550 
0.038370 0.078036 1.001610 
0.038942 0.146570 0.997638 
0.031113 0.890577 -0.027426 
0.702905 0.681681 0.049836 
0.641559 0.093199 0.775963 
0.597780 0.721976 -0.004191 
0.553003 0.094066 0.825140 
0.745447 0.659419 0.146381 
0.685129 0.160060 0.744535 
0.633491 0.714750 0.115871 
0.588754 0.188630 0.800119 
0.844921 0.570043 0.276360 
-0.454041 0.464998 0.845512 
-0.384562 0.867021 0.379037 
-0.873985 0.386457 0.403304 
-0.344221 0.326884 0.941660 
-0.268046 0.287564 0.967612 
-0.234384 0.214902 0.986588 
-0.181832 0.141760 0.999542 
-0.322594 0.801970 0.559611 
-0.804793 0.320607 0.573335 
-0.706001 0.705225 0.425597 
-0.290244 0.642337 0.767745 
-0.641382 0.278763 0.777422 
-0.184245 0.642822 0.787345 
-0.651065 0.184030 0.777788 
-0.565159 0.839816 0.317210 
-0.841283 0.570421 0.339582 
-0.210145 0.539111 0.865480 
-0.512796 0.215607 0.891861 
-0.453260 0.892384 0.191875 
-0.894855 0.463594 0.216946 
-0.773804 0.529945 0.515918 
-0.527907 0.770476 0.503113 
-0.161579 0.876299 0.387946 
-0.882342 0.157516 0.404687 
-0.172618 0.461153 0.920889 
-0.444109 0.157492 0.932874 
-0.384678 0.908075 0.104409 
-0.911311 0.396327 0.133306 
-0.129372 0.915952 0.207116 
-0.912867 0.127920 0.226402 
-0.375732 0.090217 0.965353 
-0.108577 0.370089 0.955303 
-0.595704 0.596001 0.678384 
-0.319338 0.915073 0.059369 
-0.922808 0.333254 0.095925 
-0.106210 0.913773 0.129462 
-0.917542 0.110117 0.148897 
-0.256705 0.115304 0.992526 
-0.128076 0.238298 0.992490 
-0.179157 0.067859 1.004203 
-0.432897 0.641884 0.734132 
-0.635226 0.424908 0.737906 
-0.466084 0.735441 0.611654 
-0.732391 0.461200 0.621550 
-0.557013 0.343280 0.833336 
-0.351109 0.566785 0.826597 
-0.510361 0.507869 0.791979 
-0.670125 0.680081 0.526212 
-0.193287 0.898250 0.285876 
-0.904185 0.191803 0.311897 
-0.280733 0.871730 0.391857 
-0.877487 0.278236 0.415863 
[...]
POINT_DATA 2044
SCALARS u float 1
LOOKUP_TABLE default
6.940706
6.871319
6.780374
7.724826
0.954904
5.512732
3.921378
2.580842
2.763620
3.988845
5.565173
6.846623
7.392502
7.105882
6.103356
4.771958
3.461205
3.242043
4.374812
6.049684
8.929814
9.619010
9.396683
8.546026
7.495355
5.018717
3.099966
2.277871
3.449629
5.344842
7.045224
8.260351
8.630479
8.353772
7.847877
5.152814
3.697466
3.095130
3.448803
4.663409
5.800835
6.394695
6.843998
6.172802
5.055247
3.651875
2.657943
2.819879
4.130046
5.750293
8.154040
8.658042
8.496065
7.720999
7.011484
5.369205
3.854751
3.125124
3.756507
5.318753
6.479750
7.881020
8.787137
8.697599
8.023506
6.333258
5.674936
4.785733
3.959304
3.503403
2.800150
2.241119
1.715813
1.410105
1.353857
1.304238
1.346595
1.237714
1.051634
0.997341
1.114227
1.144841
1.184126
1.161298
1.278870
0.961995
1.017548
1.006858
1.252823
2.214252
3.257543
3.833195
4.842068
5.703393
6.493209
0.984867
0.995255
1.023772
1.070372
1.064940
1.013930
1.048956
1.184350
1.541910
2.215551
2.842107
3.652301
4.452139
5.275899
6.135619
0.857519
0.827694
0.837854
0.827660
1.022715
1.179258
1.347384
1.511125
1.900218
2.517764
3.383500
4.366544
5.312389
6.225538
6.927181
3.423838
1.941578
5.145327
5.748480
6.810135
7.179592
7.980980
3.484308
2.086463
2.028599
1.535878
2.753628
2.337198
2.859673
1.565329
3.712713
4.642638
4.236895
1.389545
5.016310
3.098270
1.848652
6.526158
1.665726
6.200930
5.038703
1.224981
5.375790
7.775501
1.349026
7.712171
5.353295
1.649171
1.226644
5.959940
8.046837
1.240753
6.534848
8.385052
7.303803
2.447089
0.832805
2.210978
2.021654
2.855849
3.508250
2.441956
2.040845
1.645099
6.982965
6.061711
1.840598
2.575325
1.728358
3.513526
2.008185
1.713887
4.373604
4.847172
1.883113
1.611280
3.408060
1.737362
5.075908
4.631328
5.193008
1.983420
4.639017
4.073777
1.874548
1.353806
2.769639
2.475398
1.673577
1.305344
3.751089
2.315746
0.739363
6.043018
1.623752
5.631746
1.556398
7.306945
1.336979
2.444626
1.849347
1.743300
6.233694
6.328867
6.773374
1.544428
4.252917
7.190452
1.364086
7.602719
1.432078
1.261020
4.368264
6.869213
1.285184
1.266025
6.339271
1.977860
1.211081
1.599038
1.820839
3.128979
2.708553
1.591310
3.539938
2.008799
3.822691
4.250956
1.340119
2.397737
3.737281
2.902871
1.279549
2.634637
1.791767
4.440749
3.648545
5.774745
7.651484
2.005742
2.250092
2.557155
0.608596
1.921748
1.843127
1.968047
1.057133
2.114879
1.446690
1.770197
0.974540
2.457328
7.630937
1.829708
4.785977
2.363713
2.556046
3.690675
3.180169
3.973121
3.187805
1.110297
7.807595
4.453777
6.847841
5.751316
3.889957
5.521698
2.225582
2.111109
7.465814
1.059692
1.109292
6.939731
2.592705
1.881353
4.266609
1.670549
1.731862
2.321454
2.606793
2.066103
3.590732
2.870384
1.554748
2.471402
2.078210
1.655039
1.425808
1.155530
1.538135
2.054430
5.646725
1.734044
2.084471
1.238897
1.301114
4.219779
5.065826
1.535151
2.001793
2.450041
3.434660
4.251650
3.759041
1.474483
0.804313
1.645451
1.721514
1.843632
2.610301
3.169750
2.612514
1.546408
1.260810
4.252540
2.321984
2.371417
4.180554
3.548749
1.322243
1.275183
1.114001
3.114653
3.213795
3.299609
3.627602
2.630982
2.584822
3.257802
5.361736
1.903869
1.043901
0.404662
0.945681
5.112488
5.348277
2.784526
3.377174
3.088413
4.027262
0.218931
0.815482
4.853978
4.226032
3.015843
2.163815
2.016818
2.320554
2.281059
1.565699
3.500633
2.699705
5.749141
5.085057
5.924894
5.440026
3.755880
4.691540
2.223867
1.765087
2.239613
1.657653
1.463586
2.213147
2.623983
1.851628
5.029080
4.656519
1.295797
0.982104
1.683592
4.411307
3.440913
2.884679
2.301950
2.974822
2.395657
3.739064
2.780337
3.248990
2.744469
1.721988
1.882087
3.802241
3.901349
4.201134
3.938583
2.860309
3.007324
3.753187
0.250459
0.878066
2.435049
2.183915
3.419232
3.206606
2.575014
2.978591
2.889378
1.678992
3.936498
4.146743
2.408027
2.807011
1.499422
2.488167
2.793565
2.657974
2.930674
4.524255
4.780560
6.206750
3.569406
3.445167
6.428626
6.403788
1.203908
1.003224
0.445151
0.986194
0.590525
0.720421
2.021948
2.124908
1.344020
0.838140
4.772151
4.280280
1.408717
1.388689
1.116273
1.352026
1.638903
1.045941
5.389783
5.810708
4.199824
4.750786
2.059665
0.725135
0.521048
1.233160
0.933949
0.911627
0.549530
0.791207
0.388596
0.266163
1.136560
1.059949
1.393345
5.527255
5.558834
1.091327
1.007755
1.008886
4.148039
3.926943
0.445136
2.056771
1.749447
1.795929
1.934685
4.310267
4.058514
1.577771
1.213862
6.864587
7.128457
2.870138
3.351499
4.675121
5.222418
1.085367
0.966925
7.998988
8.475091
5.701317
6.423864
0.998988
0.914900
1.280474
8.115464
9.049785
6.024102
6.840092
0.995636
0.959191
2.013036
1.758633
3.079255
2.693052
1.328303
1.650821
1.320967
0.857382
5.793770
6.418140
5.377592
5.795652
2.133273
1.523036
3.933144
3.822093
5.077074
4.992489
4.531500
4.790981
3.294272
3.688387
6.406479
6.215016
1.342777
1.108042
4.883790
4.911718
4.415614
4.600681
3.779516
4.395372
1.858623
2.623102
6.146599
6.361168
2.340272
2.602939
3.150249
3.909127
7.053838
7.328976
6.820177
7.750508
1.126187
2.191539
7.015042
6.429697
1.069113
0.983356
5.637555
5.563201
3.646142
4.439125
4.737281
5.511806
7.676276
7.375347
7.736075
8.792879
8.376600
7.554277
1.966005
1.648219
1.908921
2.238012
1.711916
1.293879
1.318017
3.397622
3.705012
1.344095
1.571739
1.495854
1.605466
1.580617
2.040941
1.559202
2.819198
2.310188
1.257910
1.231531
3.265844
2.904379
2.685708
2.005830
1.086913
1.316045
1.347814
0.743374
2.158287
2.462698
1.452551
2.012341
2.321360
2.262040
3.943625
3.389370
1.574306
1.858528
1.783740
1.623362
1.484169
1.432097
6.852563
7.730368
1.030401
0.943888
1.189050
1.216143
2.890813
2.966504
8.011224
7.135797
8.758657
7.678304
1.078647
1.871150
2.122777
2.710231
2.434314
1.475982
1.910150
2.230548
2.673826
2.692133
0.928525
0.782395
0.847050
0.813993
3.774485
2.030139
2.031387
0.901429
0.998642
2.031138
3.339251
4.981792
4.798393
2.414125
2.360197
6.143506
1.623446
6.330986
0.767029
0.664765
1.960674
4.628447
0.540702
1.872687
1.413832
3.123350
3.327280
3.509893
1.601162
1.326257
2.762340
3.178477
1.026572
2.092786
1.177321
2.000559
2.741626
4.432299
3.935133
1.026615
2.973828
1.075250
1.852241
3.143874
5.279454
3.196087
4.789768
3.445220
2.146282
5.268957
4.584886
2.942436
1.755448
1.453351
2.751906
2.014782
2.557152
2.872235
4.056147
3.003770
1.056409
2.174254
4.157416
2.002706
2.638225
1.891170
1.480134
0.249306
2.867505
1.011176
2.443387
3.480518
2.668749
2.900473
1.192119
1.158508
1.852655
1.205356
2.326174
1.074291
1.936353
5.958787
5.037773
1.249221
1.377894
1.321185
2.118122
1.188819
3.411273
3.320536
1.550552
0.706474
1.394862
1.041571
1.703479
0.901689
3.813232
1.289915
2.705781
1.302925
1.018210
3.031649
4.243984
0.940446
1.254337
2.543091
4.966745
4.118375
3.871762
4.835962
5.019511
3.180837
4.492352
5.487393
1.635731
1.219186
4.485702
3.639643
4.821966
4.362959
5.336279
2.724345
4.271218
3.462756
2.881068
2.439990
5.108505
2.877871
5.636448
2.576292
1.789917
3.856958
3.839137
1.400658
3.473605
5.273740
1.105252
0.979146
1.241086
6.686322
1.479663
5.381699
7.261874
1.337484
5.413557
1.091366
0.932819
6.068358
4.564625
0.948508
2.710267
3.161997
4.506985
1.899591
1.785502
5.773536
0.911690
6.209268
0.863691
5.739219
0.201941
7.212524
1.033831
6.329585
1.091389
1.975808
7.266819
0.761664
1.200743
6.354251
3.558694
4.774061
1.159777
3.144466
2.480431
2.028419
2.984420
2.146827
3.161372
3.099694
2.828485
3.145209
3.129697
1.883032
1.091356
1.612357
5.028820
3.974445
0.895771
5.510202
3.722554
3.896176
4.550406
1.319102
5.632699
3.696214
3.039016
6.405969
2.958760
4.714774
2.255366
1.979736
5.599602
3.530345
4.895175
3.798622
5.431800
2.564991
1.681774
1.842342
2.690496
2.572867
2.112637
3.097429
1.186231
1.722850
6.324343
6.040909
5.247086
2.873389
1.619473
5.097083
1.336180
3.190161
2.864626
5.946328
7.199639
4.623897
1.202398
1.180058
4.357556
4.482590
3.898155
2.552395
1.197091
6.966399
3.430893
2.843132
3.048230
2.364937
0.929644
3.277348
6.582332
3.307691
5.526705
5.010456
4.391977
4.455235
2.680649
3.151242
4.808275
2.416128
2.108661
1.649233
2.011037
4.416702
2.925957
4.106028
2.835438
1.717892
1.859417
5.102272
1.165001
3.108442
5.414433
7.293613
3.347925
5.315464
3.379681
1.418913
5.227105
1.688752
2.136228
7.365211
1.976859
3.159888
1.392998
1.719958
4.074906
6.770389
2.385022
3.052208
7.933859
3.240185
4.173244
4.062898
5.686843
4.159648
3.539257
1.650792
3.805983
2.351096
3.497348
0.953564
1.319730
6.607259
7.362655
3.311589
1.177398
4.589929
2.392305
3.166327
3.129770
2.842766
4.583597
6.890096
4.474160
4.002523
1.879789
1.433930
2.626911
4.710605
2.837907
3.974014
5.577746
2.582764
6.530592
4.543916
2.614329
3.220198
1.317818
2.317764
3.825186
5.554890
2.801282
2.600116
2.098032
2.413821
1.042001
1.587267
3.954739
4.452843
1.115518
4.977500
5.818196
2.538790
5.368813
6.794674
2.738715
3.097116
5.424770
3.323958
2.508711
3.253461
2.535799
1.324982
2.819309
2.277134
1.129738
1.630065
3.410974
4.895487
4.137361
6.557834
3.359089
4.760810
5.427016
7.438148
8.588129
1.202271
2.013762
2.692414
3.948685
2.748247
4.190652
1.203202
5.532720
1.543328
4.494374
6.599387
3.853342
2.855710
4.522118
5.662416
2.602176
2.648532
1.349529
1.046876
3.079827
5.475512
7.479697
3.147088
5.654217
3.126319
4.132979
4.474865
5.587467
6.988696
6.640604
3.208219
3.913749
1.118234
4.242783
2.519355
4.350857
3.389663
2.802757
6.662079
7.329935
2.635983
1.246467
1.218034
3.934512
3.645575
7.491526
2.769084
5.959176
3.905897
6.588938
6.320424
8.289099
2.304913
4.932293
7.904110
3.411208
7.682748
2.313720
3.329452
3.623330
4.574075
3.504532
5.741748
6.023616
2.587561
1.927335
1.632808
2.145445
2.678736
2.633366
5.094532
1.982345
3.240554
1.820636
3.242359
5.306587
1.418024
3.363113
3.482303
0.879134
1.431443
3.398184
1.722837
1.764502
5.887082
3.711072
4.983606
5.231556
4.246508
2.718117
6.333114
4.356740
6.037882
3.061361
6.088533
3.306333
3.415309
3.732085
2.510264
2.017895
7.711967
1.115032
1.485175
4.821513
2.302928
3.938372
2.281770
4.491880
1.593084
3.199069
2.562319
4.882789
5.407239
4.540470
1.885109
2.188806
2.061324
7.790268
6.763702
2.722922
2.552947
1.157364
6.458784
2.389357
2.595089
2.490669
0.973276
1.764747
1.388587
2.191933
1.115885
6.026013
3.513943
3.539257
5.429671
4.352016
2.794053
6.596953
3.748534
4.563900
2.698123
4.472003
3.296347
3.169010
3.925297
2.692004
4.780029
6.778932
3.950139
1.727388
1.828538
3.794844
4.107162
5.704793
2.189378
3.295049
3.125698
3.725656
2.861974
1.279504
5.845669
2.554390
4.182290
2.176850
6.561320
3.058558
2.878911
4.620720
1.949549
4.711839
0.849832
3.478114
4.276725
2.371896
6.024487
1.947863
1.296028
5.820589
3.137282
1.221904
1.744517
2.748433
4.226285
3.647263
1.354508
3.599127
5.573353
5.185383
7.143411
3.482096
7.915062
6.104010
5.728497
3.030535
2.186205
4.599515
4.312041
8.073614
3.868469
4.033688
4.152921
1.072675
2.927346
5.172488
2.529156
3.804904
3.692268
1.478427
1.291272
4.675359
1.621020
0.940520
3.242971
2.697881
1.674328
1.560770
0.503714
0.448165
1.674774
3.828229
4.331909
0.623801
2.610803
1.471181
1.449595
0.822031
1.602565
0.851856
3.508284
1.814827
2.947043
3.855759
2.276438
1.333028
1.431120
0.394421
0.584400
1.355240
0.647273
2.401645
4.817859
4.285263
1.301123
1.820021
1.248065
0.831640
1.023200
1.077792
0.985765
0.971402
0.797411
0.732233
0.768544
0.516941
1.316382
1.338294
1.206477
0.466368
0.918045
0.876067
1.804039
1.127256
1.076785
1.092646
0.692904
0.732547
0.444674
0.978360
0.528337
0.450518
0.148877
0.667167
3.151313
3.108874
3.933227
0.672923
2.042915
1.894142
2.307654
2.404828
2.306917
1.215209
1.368904
2.376997
3.500642
3.265101
4.504561
2.023780
2.309420
4.356762
0.987805
0.664242
0.826372
0.928478
0.297760
2.154002
2.256078
1.797034
2.428799
2.775457
3.629935
3.677279
3.655837
2.515964
3.133825
2.312758
3.477930
1.690505
2.665163
1.498462
1.072801
1.093088
2.337202
2.202212
1.504557
1.081467
0.672999
0.780589
1.752762
1.830390
3.256379
3.181448
3.595946
3.008427
3.693288
2.117861
2.281461
2.540757
2.954462
2.555448
1.683576
2.506496
2.615499
2.077302
1.213159
1.541866
3.528853
4.278129
0.812349
0.426419
0.380757
0.616946
0.885695
0.368028
1.004553
0.631817
0.907636
5.178602
2.633942
3.584864
5.452739
0.706193
1.335946
1.208389
1.154409
1.074163
0.823202
1.137849
0.797670
0.386539
4.357972
5.396572
2.759927
1.339935
1.922200
4.250711
1.451817
1.362321
1.780564
0.888183
0.812997
4.178111
2.172160
0.955519
1.543223
1.231617
0.984156
0.281257
1.226044
1.491456
1.047105
2.828851
2.249025
1.536390
2.246012
1.121188
4.878867
4.234057
2.979840
1.486514
0.799503
4.859801
2.085604
1.159622
3.779234
5.489615
0.641173
2.102191
1.589422
4.729798
0.857608
1.435094
0.653425
2.687692
4.047096
4.018075
1.117152
5.752885
4.696681
5.299914
6.453616
1.992723
1.062442
0.990169
0.956732
0.608322
1.120530
1.001629
1.156444
1.905295
1.075544
2.631268
4.282117
2.428051
4.425305
2.700292
2.486229
1.243192
3.875398
3.405620
2.391691
0.606126
1.401283
1.110460
1.726127
2.304754
2.981899
1.117293
2.482351
1.165580
2.735232
1.187201
0.662523
0.511120
1.859001
2.026233
2.147081
3.618421
2.538163
2.278703
1.406356
2.323296
0.584468
0.880917
1.562425
1.315091
1.400207
1.268950
0.786009
0.912714
0.923580
1.402591
1.939574
0.705829
0.366833
1.384357
2.018274
0.229828
0.773103
1.575206
0.914389
4.745363
2.562465
0.203195
4.505909
4.020585
1.983258
3.776492
3.287287
3.070361
3.120304
4.458700
4.073930
2.802693
4.856900
1.977743
4.258614
0.953117
5.015421
3.537380
3.157486
6.220566
4.375874
4.359608
6.998240
5.496734
1.036504
0.918693
0.908564
0.808790
0.870705
0.907202
1.025680
1.275524
1.377778
2.121578
3.188259
0.834723
2.911343
1.470482
1.153977
0.163751
4.320547
4.821396
3.636422
6.061834
5.753654
4.099788
6.429689
4.645789
3.344209
4.100572
3.878702
2.531901
1.966361
3.490911
3.323890
2.349659
4.033415
2.463540
1.662897
3.591682
0.771865
0.475209
1.204382
0.983585
1.109419
1.294984
1.615802
2.275517
1.935807
0.816181
2.329770
1.793353
0.724955
6.317813
0.654807
0.885466
1.191389
0.595384
1.039190
0.915657
1.304077
0.878295
1.750972
0.588058
1.873101
1.396021
1.028911
1.121425
0.741256
1.836363
0.950139
2.599686
2.198305
2.243611
5.216183
0.741813
1.016390
1.462257
1.151110
0.747871
1.294606
2.570124
2.018515
2.569569
1.805774
1.993301
0.540183
0.687642
0.984648
0.727132
2.177252
2.534782
2.411952
1.079984
0.905813
1.409342
0.818959
3.627349
2.101221
3.798249
2.799257
2.671802
2.372832
1.312806
1.129298
1.078135
1.290254
1.330574
1.617161
1.202156
3.065966
2.744046
2.328335
3.407721
4.560273
1.684368
1.856139
1.401618
2.263094
1.741208
3.823907
2.922028
3.870599
2.076205
3.789795
2.648280
3.693195
2.522597
2.848395
2.193249
2.209867
3.203349
1.676460
2.613688
2.029030
2.155849
1.429014
1.498865
2.056503
2.808098
2.193446
2.362257
2.385354
3.911956
1.804405
1.931459
2.117676
1.433179
2.109777
1.446610
1.056111
2.963915
1.181660
1.206432
1.960770
1.718913
3.261926
1.230971
1.896746
2.636122
1.231135
2.654024
4.298295
0.997343
1.147411
0.807367
0.080643
2.189620
1.466457
4.813606
5.328916
4.054657
3.338058
1.964638
2.168053
1.198001
2.376832
0.866334
5.288513
2.912138
2.322794
4.079472
1.301219
1.121138
1.075786
0.931877
2.118904
1.541206
5.312148
2.018234
3.001713
3.244226
4.026094
0.932026
1.447593
1.112566
3.185217
3.101312
2.763129
2.066048
2.397968
1.503305
1.880350
1.341886
1.640324
1.103492
1.100680
3.212641
4.104063
3.530962
2.107838
2.788614
3.232956
2.639707
1.816689
2.023225
1.907488
1.992770
1.307043
2.912894
1.436100
3.468678
4.148869
4.643974
4.274076
4.783737
2.100282
0.843675
2.476049
1.854644
1.329862
3.929776
4.160651
5.071894
3.087569
3.906670
3.920671
2.286663
2.639633
0.851714
0.754961
0.659447
1.031711
0.730729
0.611949
2.523129
2.532103
2.174929
1.959069
2.970114
2.297780
2.300484
2.352623
2.207931
2.337391
3.119327
3.932450
2.478847
1.688206
1.128765
1.440239
1.536174
1.196685
1.039783
1.260589
1.856338
4.699464
2.448351
1.042939
1.054641
0.944474
5.867553
2.661220
1.515688
2.501756
2.717783
2.579605
2.014145
1.764161
3.026401
2.227142
3.640554
3.062310
1.872844
2.248889
2.630024
2.991452
2.692872
3.221252
4.210039
2.555195
4.687256
4.062331
5.135198
5.098268
1.586952
1.249761
4.069411
5.427489
4.514533
5.986159
5.546003
3.671164
2.692281
3.032422
1.190688
1.318287
1.282642
1.296428
1.439388
1.205309
1.228321
1.034751
4.566134
4.834862
4.719940
1.893447
4.509133
3.897940
4.365270
1.952862
1.774740
1.459824
3.580313
1.470383
1.090170
2.309548
1.487342
1.300666
3.621287
3.748917
2.598228
2.092003
1.568771
1.021925
2.115427
1.691931
6.413568
6.242602
2.031261
1.504638
3.425318
4.022486
3.477055
3.617571
2.888567
1.758914
3.717155
3.193227
2.356464
0.877698
0.950996
0.685114
2.891811
2.925257
1.083120
2.284303
1.601112
2.762630
3.567406
3.356318
1.750987
1.827042
3.541830
3.873995
2.970710
3.352375
4.387361
4.648910
3.930263
4.298454
1.703128
1.880032
1.971725
1.958991
0.921313
2.344241
2.092292
1.620527
4.393178
3.755409
2.761713
5.012394
4.972614
1.810401
1.378727
2.023503
1.929486
1.345400
1.139180
1.079646
2.540528
0.749689
2.742916
1.818759
1.544850
2.470386
2.103256
1.602875
1.680167
0.924563
0.869210
1.449569
3.299078
2.752552
5.116369
0.701547
2.711549
1.981788
2.100456
3.229258
0.830402
0.865403
0.936816
1.525121
1.388380
1.646211
1.238881
0.906101
1.215220
1.036539
1.727749
1.474746
1.974351
3.020570
3.189300
5.470481
4.813788
3.494220
1.541401
5.940553
5.319562
4.477357
1.326886
2.227067
1.549718
2.305843
1.960600
6.053682
5.037549
2.342376
1.924670
4.382028
2.497880
1.931571
2.030724
1.601577
1.148181
4.985051
5.219231
3.745851
1.744404
1.033924
1.205353
0.868436
0.660875
1.701248
1.309394
2.274591
1.174786
1.170049
3.097217
2.616129
3.382128
1.440465
1.904492
2.081950
2.301675
2.214160
2.334222
3.639798
3.695216
1.948327
3.342452
3.106512
0.438666
0.244069
0.692894
0.565907
0.278261
0.304406
0.231335
0.651225
0.064019
0.607626
1.473522
1.342334
2.065559
0.449011
1.149716
0.350946
0.749163
0.968504
0.957459
1.958892
1.880242
1.600941
1.337205
1.041562
0.611652
0.972382
0.696973
0.979200
0.871575
0.499554
0.257188
0.327406
0.336653
1.002885
0.727274
1.478974
0.855534
1.847114
1.795491
0.513870
0.183322
0.631636
0.337500
0.428984
0.343871
0.295921
1.068783
0.584262
1.682713
2.389005
1.714213
2.139583
1.818602
1.406700
2.067801
0.411134
0.608413
0.632935
0.812368
0.408760
0.825152
0.792160
1.308776
0.751379
1.457145
0.573603
0.813630
2.294002
2.071790
0.819946
0.915997
0.997223
0.598368
2.463994
1.951798
0.918343
1.232821
2.330232
1.675699
2.015623
1.862758
0.454693
1.083343
2.068200
1.118967
2.150346
1.389028
2.764015
2.427062
0.202309
0.389976
2.868718
2.228566
