# vtk DataFile Version 2.0
Unstructured Grid Example
ASCII
DATASET UNSTRUCTURED_GRID
POINTS 2044 float
1.020083 0.006965 0.025226 
-0.007816 0.980264 -0.024818 
-0.980665 0.012370 -0.022619 
-0.010978 -1.022416 0.026925 
-0.003440 0.002752 1.001089 
1.011889 -0.090233 0.018624 
0.993984 -0.186559 0.010019 
0.965049 -0.281163 0.001224 
0.926986 -0.372769 -0.008036 
0.880212 -0.460123 -0.015146 
0.824890 -0.542850 -0.022238 
0.764124 -0.621155 -0.028367 
0.693909 -0.694686 -0.030100 
0.619211 -0.763162 -0.028515 
0.540742 -0.824306 -0.023881 
0.457106 -0.879294 -0.017414 
0.369096 -0.926701 -0.008834 
0.276719 -0.964246 -0.000137 
0.181962 -0.993810 0.009505 
0.086079 -1.013558 0.018619 
-0.109303 -1.020040 0.032498 
-0.205250 -1.007194 0.035908 
-0.298296 -0.982711 0.035585 
-0.389128 -0.947335 0.032529 
-0.474574 -0.902861 0.028644 
-0.555543 -0.847353 0.017795 
-0.630194 -0.784603 0.008066 
-0.698695 -0.713815 -0.001205 
-0.760854 -0.637410 -0.010579 
-0.814769 -0.553704 -0.019050 
-0.861655 -0.466649 -0.026229 
-0.901054 -0.374916 -0.030984 
-0.933413 -0.280717 -0.032210 
-0.957508 -0.185208 -0.030608 
-0.972609 -0.087284 -0.027683 
-0.980151 0.110027 -0.015150 
-0.970270 0.207833 -0.005988 
-0.950450 0.303293 0.002247 
-0.920733 0.395413 0.009836 
-0.883976 0.484435 0.017806 
-0.837625 0.568937 0.023314 
-0.781718 0.646895 0.026299 
-0.718415 0.718213 0.028405 
-0.646412 0.781215 0.025475 
-0.567177 0.837155 0.020254 
-0.482448 0.883186 0.013323 
-0.393319 0.919911 0.005542 
-0.300469 0.949029 -0.003648 
-0.203668 0.967640 -0.011788 
-0.106364 0.977710 -0.019284 
0.091248 0.971391 -0.029832 
0.189473 0.955134 -0.031682 
0.285130 0.931781 -0.031160 
0.379057 0.900305 -0.027888 
0.469819 0.859366 -0.024480 
0.557666 0.812573 -0.017022 
0.640118 0.757989 -0.008789 
0.716590 0.695675 0.000001 
0.787671 0.628688 0.008443 
0.849217 0.552641 0.017762 
0.901749 0.470688 0.023554 
0.947037 0.384095 0.029407 
0.981983 0.293038 0.033309 
1.005580 0.199739 0.032748 
1.017837 0.103738 0.030139 
1.011978 0.004310 0.122624 
0.994114 0.002546 0.218400 
0.965572 0.001503 0.311275 
0.928235 0.001179 0.400952 
0.883987 0.001595 0.487842 
0.831000 0.001475 0.568788 
0.770512 0.001569 0.644628 
0.703670 0.003112 0.713815 
0.630164 0.002508 0.777565 
0.549967 0.002827 0.832888 
0.466022 0.003067 0.882275 
0.377445 0.003512 0.922791 
0.285625 0.003149 0.955214 
0.191092 0.002931 0.980152 
0.094378 0.003037 0.995099 
-0.003908 0.100826 0.997395 
-0.003651 0.198247 0.983298 
-0.003533 0.293667 0.959724 
-0.003538 0.386212 0.926224 
-0.003077 0.475797 0.884770 
-0.001701 0.559772 0.832067 
-0.001139 0.638733 0.771204 
-0.000964 0.709935 0.703369 
-0.001110 0.774212 0.628668 
-0.000430 0.830093 0.545146 
-0.001585 0.877626 0.456607 
-0.002834 0.918715 0.365444 
-0.003361 0.947500 0.269568 
-0.004349 0.967668 0.171771 
-0.005649 0.978086 0.072955 
-0.101634 0.002018 0.997365 
-0.199177 0.001334 0.982758 
-0.294544 0.000490 0.959241 
-0.387120 -0.000454 0.926328 
-0.476228 -0.000844 0.883173 
-0.560252 -0.001092 0.831133 
-0.638738 -0.000523 0.770622 
-0.710624 0.000017 0.702712 
-0.774491 0.000295 0.627222 
-0.830449 0.000793 0.545120 
-0.878542 0.001107 0.458365 
-0.917470 0.001790 0.366651 
-0.947676 0.003387 0.271564 
-0.968149 0.005629 0.174176 
-0.978339 0.008607 0.075824 
-0.002783 -0.095107 0.995818 
-0.002106 -0.191774 0.980589 
-0.001801 -0.286795 0.956282 
-0.000676 -0.378815 0.924111 
-0.000249 -0.466639 0.882884 
0.001500 -0.550837 0.834069 
0.002182 -0.629993 0.777120 
0.001351 -0.702719 0.712630 
0.001531 -0.770245 0.642854 
0.001121 -0.831341 0.567483 
-0.000873 -0.883795 0.487344 
-0.001800 -0.929468 0.402589 
-0.003573 -0.967402 0.312985 
-0.005288 -0.995707 0.220088 
-0.008006 -1.013810 0.123959 
0.768966 0.450961 0.473966 
0.332170 0.380344 0.865401 
0.333653 0.856067 0.351150 
0.900325 0.326349 0.341412 
0.945368 0.270524 0.268747 
0.968832 0.209073 0.245212 
0.991152 0.199279 0.165200 
0.515761 0.787035 0.305251 
0.511926 0.325671 0.796578 
0.274056 0.683573 0.671407 
0.725306 0.629473 0.293394 
0.720265 0.290855 0.640520 
0.760431 0.626663 0.196989 
0.758463 0.187354 0.635823 
0.204791 0.539115 0.816584 
0.205325 0.817710 0.516840 
0.847236 0.506103 0.230997 
0.831037 0.211403 0.538931 
0.132191 0.422930 0.898821 
0.132425 0.892104 0.395061 
0.396950 0.754972 0.504470 
0.396836 0.523654 0.753506 
0.420932 0.876019 0.128172 
0.417291 0.158668 0.894603 
0.904489 0.430552 0.180530 
0.895266 0.181424 0.442272 
0.087508 0.348486 0.935170 
0.087746 0.925894 0.320544 
0.278751 0.932603 0.081591 
0.277366 0.115811 0.951478 
0.955118 0.346107 0.118255 
0.939814 0.096097 0.374656 
0.559007 0.588810 0.582714 
0.081211 0.283665 0.957841 
0.081184 0.944984 0.254015 
0.220010 0.948980 0.054295 
0.220068 0.088764 0.969945 
0.978847 0.112747 0.261006 
0.982727 0.269281 0.105362 
1.003457 0.100196 0.168062 
0.645657 0.432933 0.635216 
0.649726 0.629965 0.428972 
0.520078 0.718134 0.447406 
0.518135 0.463327 0.721407 
0.765729 0.550104 0.356689 
0.756978 0.351623 0.567826 
0.702608 0.506339 0.512318 
0.379044 0.651509 0.651605 
0.322139 0.190097 0.926370 
0.324236 0.909377 0.157067 
0.386669 0.866514 0.247122 
0.383988 0.277850 0.880211 
0.329827 0.728136 0.591760 
0.329679 0.607741 0.720858 
0.462576 0.769180 0.413043 
0.461483 0.434687 0.775068 
0.267255 0.473061 0.841092 
0.268628 0.838138 0.447269 
0.473950 0.833606 0.225136 
0.469785 0.249871 0.846972 
0.299748 0.540039 0.786885 
0.299668 0.789093 0.519315 
0.224561 0.412713 0.885395 
0.225425 0.878524 0.383989 
0.851707 0.437349 0.332100 
0.865092 0.276666 0.453649 
0.423295 0.353524 0.835669 
0.425445 0.826051 0.327437 
0.366741 0.811699 0.425945 
0.365931 0.450393 0.816069 
0.100505 0.577070 0.810526 
0.101736 0.813012 0.559532 
0.206327 0.760082 0.606589 
0.205893 0.622463 0.752568 
0.073834 0.493519 0.870264 
0.075411 0.865754 0.471349 
0.638889 0.307360 0.710625 
0.643427 0.700811 0.299552 
0.497950 0.845194 0.051636 
0.492493 0.077282 0.864851 
0.176921 0.910359 0.327181 
0.176463 0.357411 0.920113 
0.216006 0.940321 0.158394 
0.214912 0.192310 0.957266 
0.427554 0.682537 0.581189 
0.414919 0.580710 0.697803 
0.258880 0.300376 0.919452 
0.259582 0.906575 0.268068 
0.937553 0.205798 0.339749 
0.930891 0.351782 0.224787 
0.167162 0.489708 0.856269 
0.168370 0.854154 0.465102 
0.422034 0.882578 0.030482 
0.419247 0.060944 0.904280 
0.352549 0.909341 0.055844 
0.350589 0.088852 0.930081 
0.057052 0.426630 0.906002 
0.057684 0.898784 0.402514 
0.106442 0.958399 0.169583 
0.105976 0.201694 0.975475 
0.153558 0.281118 0.949292 
0.153594 0.936413 0.249716 
0.605785 0.505028 0.617872 
0.607491 0.617550 0.498696 
0.543463 0.660950 0.509965 
0.542486 0.520132 0.659582 
0.731268 0.429574 0.545343 
0.741177 0.525816 0.435137 
0.637850 0.546636 0.545746 
0.556311 0.788970 0.215253 
0.551261 0.234215 0.802409 
0.814501 0.505800 0.320265 
0.810910 0.314331 0.518447 
0.674020 0.575418 0.468584 
0.672148 0.468872 0.581213 
0.780848 0.385005 0.513004 
0.700262 0.389517 0.609156 
0.703961 0.599697 0.389559 
0.474150 0.708885 0.506652 
0.474380 0.522809 0.707715 
0.834808 0.378778 0.430795 
0.798387 0.477928 0.393990 
0.902506 0.244830 0.399639 
0.968170 0.268001 0.187750 
0.566219 0.730474 0.365692 
0.562853 0.380112 0.736721 
0.641966 0.374231 0.676038 
0.645035 0.667798 0.368038 
0.499787 0.648516 0.567226 
0.472358 0.602363 0.639147 
0.172269 0.700041 0.687989 
0.591038 0.674003 0.439548 
0.587608 0.448687 0.676652 
0.094607 0.668870 0.735678 
0.094863 0.742923 0.657903 
0.687088 0.690801 0.221701 
0.679642 0.226173 0.704820 
1.014768 0.087376 0.093209 
0.526123 0.157503 0.835128 
0.531680 0.818527 0.135302 
0.739112 0.087884 0.674648 
0.751037 0.659290 0.091007 
0.782686 0.271450 0.579825 
0.788003 0.567172 0.271214 
0.814103 0.584520 0.125991 
0.801559 0.097296 0.604692 
0.133720 0.094132 0.986472 
0.132587 0.965727 0.060548 
0.904402 0.079959 0.450274 
0.917925 0.432443 0.100063 
0.875708 0.501839 0.113913 
0.861317 0.097572 0.520775 
0.888709 0.416115 0.263297 
0.601023 0.268926 0.755377 
0.606774 0.743855 0.255429 
0.054223 0.975951 0.032372 
0.056670 0.063772 0.997246 
0.057777 0.131953 0.991128 
0.056401 0.972304 0.101361 
0.676080 0.728250 0.071009 
0.665325 0.078259 0.744837 
0.590372 0.790187 0.061598 
0.582486 0.078773 0.808344 
0.716454 0.684422 0.141575 
0.705390 0.143296 0.699999 
0.625935 0.754763 0.157281 
0.617962 0.169830 0.769914 
0.804317 0.573500 0.207518 
-0.447312 0.459839 0.782127 
-0.375812 0.864086 0.345651 
-0.865311 0.376145 0.349918 
-0.333480 0.321878 0.896901 
-0.255238 0.280092 0.933852 
-0.218077 0.207581 0.960329 
-0.164500 0.135144 0.981692 
-0.320942 0.793933 0.526339 
-0.794430 0.320592 0.528752 
-0.684015 0.683879 0.303581 
-0.287157 0.630943 0.730959 
-0.630775 0.285139 0.732661 
-0.183863 0.626156 0.765346 
-0.642218 0.187749 0.750435 
-0.539423 0.822802 0.228403 
-0.823060 0.540348 0.232337 
-0.207543 0.522712 0.835579 
-0.499231 0.217430 0.849415 
-0.424006 0.897241 0.146047 
-0.897676 0.425823 0.150455 
-0.757907 0.519903 0.423079 
-0.519544 0.757322 0.420828 
-0.155516 0.889776 0.417285 
-0.890838 0.154802 0.420229 
-0.163707 0.443530 0.890003 
-0.425768 0.160686 0.899341 
-0.351440 0.929746 0.093791 
-0.930315 0.353488 0.098872 
-0.115399 0.946158 0.269402 
-0.945615 0.115143 0.272793 
-0.355002 0.091638 0.937872 
-0.094415 0.356499 0.935208 
-0.585684 0.585736 0.584733 
-0.286644 0.949060 0.080635 
-0.950420 0.289091 0.087062 
-0.089094 0.960634 0.208113 
-0.961296 0.089781 0.211530 
-0.237372 0.110210 0.970891 
-0.111323 0.226486 0.972819 
-0.160545 0.061505 0.989063 
-0.428468 0.629394 0.666017 
-0.628223 0.427063 0.666681 
-0.458509 0.721370 0.539899 
-0.720834 0.457650 0.541639 
-0.549218 0.343763 0.775243 
-0.347182 0.554664 0.770436 
-0.503312 0.502874 0.719914 
-0.651210 0.661963 0.409663 
-0.186779 0.921264 0.320907 
-0.922307 0.186518 0.325482 
-0.274102 0.877792 0.391118 
-0.878805 0.273663 0.395339 
-0.607009 0.728889 0.358167 
[...]
POINT_DATA 2044
SCALARS u float 1
LOOKUP_TABLE default
6.940706
6.871319
6.780374
7.724826
0.954904
5.512732
3.921378
2.580842
2.763620
3.988845
5.565173
6.846623
7.392502
7.105882
6.103356
4.771958
3.461205
3.242043
4.374812
6.049684
8.929814
9.619010
9.396683
8.546026
7.495355
5.018717
3.099966
2.277871
3.449629
5.344842
7.045224
8.260351
8.630479
8.353772
7.847877
5.152814
3.697466
3.095130
3.448803
4.663409
5.800835
6.394695
6.843998
6.172802
5.055247
3.651875
2.657943
2.819879
4.130046
5.750293
8.154040
8.658042
8.496065
7.720999
7.011484
5.369205
3.854751
3.125124
3.756507
5.318753
6.479750
7.881020
8.787137
8.697599
8.023506
6.333258
5.674936
4.785733
3.959304
3.503403
2.800150
2.241119
1.715813
1.410105
1.353857
1.304238
1.346595
1.237714
1.051634
0.997341
1.114227
1.144841
1.184126
1.161298
1.278870
0.961995
1.017548
1.006858
1.252823
2.214252
3.257543
3.833195
4.842068
5.703393
6.493209
0.984867
0.995255
1.023772
1.070372
1.064940
1.013930
1.048956
1.184350
1.541910
2.215551
2.842107
3.652301
4.452139
5.275899
6.135619
0.857519
0.827694
0.837854
0.827660
1.022715
1.179258
1.347384
1.511125
1.900218
2.517764
3.383500
4.366544
5.312389
6.225538
6.927181
3.423838
1.941578
5.145327
5.748480
6.810135
7.179592
7.980980
3.484308
2.086463
2.028599
1.535878
2.753628
2.337198
2.859673
1.565329
3.712713
4.642638
4.236895
1.389545
5.016310
3.098270
1.848652
6.526158
1.665726
6.200930
5.038703
1.224981
5.375790
7.775501
1.349026
7.712171
5.353295
1.649171
1.226644
5.959940
8.046837
1.240753
6.534848
8.385052
7.303803
2.447089
0.832805
2.210978
2.021654
2.855849
3.508250
2.441956
2.040845
1.645099
6.982965
6.061711
1.840598
2.575325
1.728358
3.513526
2.008185
1.713887
4.373604
4.847172
1.883113
1.611280
3.408060
1.737362
5.075908
4.631328
5.193008
1.983420
4.639017
4.073777
1.874548
1.353806
2.769639
2.475398
1.673577
1.305344
3.751089
2.315746
0.739363
6.043018
1.623752
5.631746
1.556398
7.306945
1.336979
2.444626
1.849347
1.743300
6.233694
6.328867
6.773374
1.544428
4.252917
7.190452
1.364086
7.602719
1.432078
1.261020
4.368264
6.869213
1.285184
1.266025
6.339271
1.977860
1.211081
1.599038
1.820839
3.128979
2.708553
1.591310
3.539938
2.008799
3.822691
4.250956
1.340119
2.397737
3.737281
2.902871
1.279549
2.634637
1.791767
4.440749
3.648545
5.774745
7.651484
2.005742
2.250092
2.557155
0.608596
1.921748
1.843127
1.968047
1.057133
2.114879
1.446690
1.770197
0.974540
2.457328
7.630937
1.829708
4.785977
2.363713
2.556046
3.690675
3.180169
3.973121
3.187805
1.110297
7.807595
4.453777
6.847841
5.751316
3.889957
5.521698
2.225582
2.111109
7.465814
1.059692
1.109292
6.939731
2.592705
1.881353
4.266609
1.670549
1.731862
2.321454
2.606793
2.066103
3.590732
2.870384
1.554748
2.471402
2.078210
1.655039
1.425808
1.155530
1.538135
2.054430
5.646725
1.734044
2.084471
1.238897
1.301114
4.219779
5.065826
1.535151
2.001793
2.450041
3.434660
4.251650
3.759041
1.474483
0.804313
1.645451
1.721514
1.843632
2.610301
3.169750
2.612514
1.546408
1.260810
4.252540
2.321984
2.371417
4.180554
3.548749
1.322243
1.275183
1.114001
3.114653
3.213795
3.299609
3.627602
2.630982
2.584822
3.257802
5.361736
1.903869
1.043901
0.404662
0.945681
5.112488
5.348277
2.784526
3.377174
3.088413
4.027262
0.218931
0.815482
4.853978
4.226032
3.015843
2.163815
2.016818
2.320554
2.281059
1.565699
3.500633
2.699705
5.749141
5.085057
5.924894
5.440026
3.755880
4.691540
2.223867
1.765087
2.239613
1.657653
1.463586
2.213147
2.623983
1.851628
5.029080
4.656519
1.295797
0.982104
1.683592
4.411307
3.440913
2.884679
2.301950
2.974822
2.395657
3.739064
2.780337
3.248990
2.744469
1.721988
1.882087
3.802241
3.901349
4.201134
3.938583
2.860309
3.007324
3.753187
0.250459
0.878066
2.435049
2.183915
3.419232
3.206606
2.575014
2.978591
2.889378
1.678992
3.936498
4.146743
2.408027
2.807011
1.499422
2.488167
2.793565
2.657974
2.930674
4.524255
4.780560
6.206750
3.569406
3.445167
6.428626
6.403788
1.203908
1.003224
0.445151
0.986194
0.590525
0.720421
2.021948
2.124908
1.344020
0.838140
4.772151
4.280280
1.408717
1.388689
1.116273
1.352026
1.638903
1.045941
5.389783
5.810708
4.199824
4.750786
2.059665
0.725135
0.521048
1.233160
0.933949
0.911627
0.549530
0.791207
0.388596
0.266163
1.136560
1.059949
1.393345
5.527255
5.558834
1.091327
1.007755
1.008886
4.148039
3.926943
0.445136
2.056771
1.749447
1.795929
1.934685
4.310267
4.058514
1.577771
1.213862
6.864587
7.128457
2.870138
3.351499
4.675121
5.222418
1.085367
0.966925
7.998988
8.475091
5.701317
6.423864
0.998988
0.914900
1.280474
8.115464
9.049785
6.024102
6.840092
0.995636
0.959191
2.013036
1.758633
3.079255
2.693052
1.328303
1.650821
1.320967
0.857382
5.793770
6.418140
5.377592
5.795652
2.133273
1.523036
3.933144
3.822093
5.077074
4.992489
4.531500
4.790981
3.294272
3.688387
6.406479
6.215016
1.342777
1.108042
4.883790
4.911718
4.415614
4.600681
3.779516
4.395372
1.858623
2.623102
6.146599
6.361168
2.340272
2.602939
3.150249
3.909127
7.053838
7.328976
6.820177
7.750508
1.126187
2.191539
7.015042
6.429697
1.069113
0.983356
5.637555
5.563201
3.646142
4.439125
4.737281
5.511806
7.676276
7.375347
7.736075
8.792879
8.376600
7.554277
1.966005
1.648219
1.908921
2.238012
1.711916
1.293879
1.318017
3.397622
3.705012
1.344095
1.571739
1.495854
1.605466
1.580617
2.040941
1.559202
2.819198
2.310188
1.257910
1.231531
3.265844
2.904379
2.685708
2.005830
1.086913
1.316045
1.347814
0.743374
2.158287
2.462698
1.452551
2.012341
2.321360
2.262040
3.943625
3.389370
1.574306
1.858528
1.783740
1.623362
1.484169
1.432097
6.852563
7.730368
1.030401
0.943888
1.189050
1.216143
2.890813
2.966504
8.011224
7.135797
8.758657
7.678304
1.078647
1.871150
2.122777
2.710231
2.434314
1.475982
1.910150
2.230548
2.673826
2.692133
0.928525
0.782395
0.847050
0.813993
3.774485
2.030139
2.031387
0.901429
0.998642
2.031138
3.339251
4.981792
4.798393
2.414125
2.360197
6.143506
1.623446
6.330986
0.767029
0.664765
1.960674
4.628447
0.540702
1.872687
1.413832
3.123350
3.327280
3.509893
1.601162
1.326257
2.762340
3.178477
1.026572
2.092786
1.177321
2.000559
2.741626
4.432299
3.935133
1.026615
2.973828
1.075250
1.852241
3.143874
5.279454
3.196087
4.789768
3.445220
2.146282
5.268957
4.584886
2.942436
1.755448
1.453351
2.751906
2.014782
2.557152
2.872235
4.056147
3.003770
1.056409
2.174254
4.157416
2.002706
2.638225
1.891170
1.480134
0.249306
2.867505
1.011176
2.443387
3.480518
2.668749
2.900473
1.192119
1.158508
1.852655
1.205356
2.326174
1.074291
1.936353
5.958787
5.037773
1.249221
1.377894
1.321185
2.118122
1.188819
3.411273
3.320536
1.550552
0.706474
1.394862
1.041571
1.703479
0.901689
3.813232
1.289915
2.705781
1.302925
1.018210
3.031649
4.243984
0.940446
1.254337
2.543091
4.966745
4.118375
3.871762
4.835962
5.019511
3.180837
4.492352
5.487393
1.635731
1.219186
4.485702
3.639643
4.821966
4.362959
5.336279
2.724345
4.271218
3.462756
2.881068
2.439990
5.108505
2.877871
5.636448
2.576292
1.789917
3.856958
3.839137
1.400658
3.473605
5.273740
1.105252
0.979146
1.241086
6.686322
1.479663
5.381699
7.261874
1.337484
5.413557
1.091366
0.932819
6.068358
4.564625
0.948508
2.710267
3.161997
4.506985
1.899591
1.785502
5.773536
0.911690
6.209268
0.863691
5.739219
0.201941
7.212524
1.033831
6.329585
1.091389
1.975808
7.266819
0.761664
1.200743
6.354251
3.558694
4.774061
1.159777
3.144466
2.480431
2.028419
2.984420
2.146827
3.161372
3.099694
2.828485
3.145209
3.129697
1.883032
1.091356
1.612357
5.028820
3.974445
0.895771
5.510202
3.722554
3.896176
4.550406
1.319102
5.632699
3.696214
3.039016
6.405969
2.958760
4.714774
2.255366
1.979736
5.599602
3.530345
4.895175
3.798622
5.431800
2.564991
1.681774
1.842342
2.690496
2.572867
2.112637
3.097429
1.186231
1.722850
6.324343
6.040909
5.247086
2.873389
1.619473
5.097083
1.336180
3.190161
2.864626
5.946328
7.199639
4.623897
1.202398
1.180058
4.357556
4.482590
3.898155
2.552395
1.197091
6.966399
3.430893
2.843132
3.048230
2.364937
0.929644
3.277348
6.582332
3.307691
5.526705
5.010456
4.391977
4.455235
2.680649
3.151242
4.808275
2.416128
2.108661
1.649233
2.011037
4.416702
2.925957
4.106028
2.835438
1.717892
1.859417
5.102272
1.165001
3.108442
5.414433
7.293613
3.347925
5.315464
3.379681
1.418913
5.227105
1.688752
2.136228
7.365211
1.976859
3.159888
1.392998
1.719958
4.074906
6.770389
2.385022
3.052208
7.933859
3.240185
4.173244
4.062898
5.686843
4.159648
3.539257
1.650792
3.805983
2.351096
3.497348
0.953564
1.319730
6.607259
7.362655
3.311589
1.177398
4.589929
2.392305
3.166327
3.129770
2.842766
4.583597
6.890096
4.474160
4.002523
1.879789
1.433930
2.626911
4.710605
2.837907
3.974014
5.577746
2.582764
6.530592
4.543916
2.614329
3.220198
1.317818
2.317764
3.825186
5.554890
2.801282
2.600116
2.098032
2.413821
1.042001
1.587267
3.954739
4.452843
1.115518
4.977500
5.818196
2.538790
5.368813
6.794674
2.738715
3.097116
5.424770
3.323958
2.508711
3.253461
2.535799
1.324982
2.819309
2.277134
1.129738
1.630065
3.410974
4.895487
4.137361
6.557834
3.359089
4.760810
5.427016
7.438148
8.588129
1.202271
2.013762
2.692414
3.948685
2.748247
4.190652
1.203202
5.532720
1.543328
4.494374
6.599387
3.853342
2.855710
4.522118
5.662416
2.602176
2.648532
1.349529
1.046876
3.079827
5.475512
7.479697
3.147088
5.654217
3.126319
4.132979
4.474865
5.587467
6.988696
6.640604
3.208219
3.913749
1.118234
4.242783
2.519355
4.350857
3.389663
2.802757
6.662079
7.329935
2.635983
1.246467
1.218034
3.934512
3.645575
7.491526
2.769084
5.959176
3.905897
6.588938
6.320424
8.289099
2.304913
4.932293
7.904110
3.411208
7.682748
2.313720
3.329452
3.623330
4.574075
3.504532
5.741748
6.023616
2.587561
1.927335
1.632808
2.145445
2.678736
2.633366
5.094532
1.982345
3.240554
1.820636
3.242359
5.306587
1.418024
3.363113
3.482303
0.879134
1.431443
3.398184
1.722837
1.764502
5.887082
3.711072
4.983606
5.231556
4.246508
2.718117
6.333114
4.356740
6.037882
3.061361
6.088533
3.306333
3.415309
3.732085
2.510264
2.017895
7.711967
1.115032
1.485175
4.821513
2.302928
3.938372
2.281770
4.491880
1.593084
3.199069
2.562319
4.882789
5.407239
4.540470
1.885109
2.188806
2.061324
7.790268
6.763702
2.722922
2.552947
1.157364
6.458784
2.389357
2.595089
2.490669
0.973276
1.764747
1.388587
2.191933
1.115885
6.026013
3.513943
3.539257
5.429671
4.352016
2.794053
6.596953
3.748534
4.563900
2.698123
4.472003
3.296347
3.169010
3.925297
2.692004
4.780029
6.778932
3.950139
1.727388
1.828538
3.794844
4.107162
5.704793
2.189378
3.295049
3.125698
3.725656
2.861974
1.279504
5.845669
2.554390
4.182290
2.176850
6.561320
3.058558
2.878911
4.620720
1.949549
4.711839
0.849832
3.478114
4.276725
2.371896
6.024487
1.947863
1.296028
5.820589
3.137282
1.221904
1.744517
2.748433
4.226285
3.647263
1.354508
3.599127
5.573353
5.185383
7.143411
3.482096
7.915062
6.104010
5.728497
3.030535
2.186205
4.599515
4.312041
8.073614
3.868469
4.033688
4.152921
1.072675
2.927346
5.172488
2.529156
3.804904
3.692268
1.478427
1.291272
4.675359
1.621020
0.940520
3.242971
2.697881
1.674328
1.560770
0.503714
0.448165
1.674774
3.828229
4.331909
0.623801
2.610803
1.471181
1.449595
0.822031
1.602565
0.851856
3.508284
1.814827
2.947043
3.855759
2.276438
1.333028
1.431120
0.394421
0.584400
1.355240
0.647273
2.401645
4.817859
4.285263
1.301123
1.820021
1.248065
0.831640
1.023200
1.077792
0.985765
0.971402
0.797411
0.732233
0.768544
0.516941
1.316382
1.338294
1.206477
0.466368
0.918045
0.876067
1.804039
1.127256
1.076785
1.092646
0.692904
0.732547
0.444674
0.978360
0.528337
0.450518
0.148877
0.667167
3.151313
3.108874
3.933227
0.672923
2.042915
1.894142
2.307654
2.404828
2.306917
1.215209
1.368904
2.376997
3.500642
3.265101
4.504561
2.023780
2.309420
4.356762
0.987805
0.664242
0.826372
0.928478
0.297760
2.154002
2.256078
1.797034
2.428799
2.775457
3.629935
3.677279
3.655837
2.515964
3.133825
2.312758
3.477930
1.690505
2.665163
1.498462
1.072801
1.093088
2.337202
2.202212
1.504557
1.081467
0.672999
0.780589
1.752762
1.830390
3.256379
3.181448
3.595946
3.008427
3.693288
2.117861
2.281461
2.540757
2.954462
2.555448
1.683576
2.506496
2.615499
2.077302
1.213159
1.541866
3.528853
4.278129
0.812349
0.426419
0.380757
0.616946
0.885695
0.368028
1.004553
0.631817
0.907636
5.178602
2.633942
3.584864
5.452739
0.706193
1.335946
1.208389
1.154409
1.074163
0.823202
1.137849
0.797670
0.386539
4.357972
5.396572
2.759927
1.339935
1.922200
4.250711
1.451817
1.362321
1.780564
0.888183
0.812997
4.178111
2.172160
0.955519
1.543223
1.231617
0.984156
0.281257
1.226044
1.491456
1.047105
2.828851
2.249025
1.536390
2.246012
1.121188
4.878867
4.234057
2.979840
1.486514
0.799503
4.859801
2.085604
1.159622
3.779234
5.489615
0.641173
2.102191
1.589422
4.729798
0.857608
1.435094
0.653425
2.687692
4.047096
4.018075
1.117152
5.752885
4.696681
5.299914
6.453616
1.992723
1.062442
0.990169
0.956732
0.608322
1.120530
1.001629
1.156444
1.905295
1.075544
2.631268
4.282117
2.428051
4.425305
2.700292
2.486229
1.243192
3.875398
3.405620
2.391691
0.606126
1.401283
1.110460
1.726127
2.304754
2.981899
1.117293
2.482351
1.165580
2.735232
1.187201
0.662523
0.511120
1.859001
2.026233
2.147081
3.618421
2.538163
2.278703
1.406356
2.323296
0.584468
0.880917
1.562425
1.315091
1.400207
1.268950
0.786009
0.912714
0.923580
1.402591
1.939574
0.705829
0.366833
1.384357
2.018274
0.229828
0.773103
1.575206
0.914389
4.745363
2.562465
0.203195
4.505909
4.020585
1.983258
3.776492
3.287287
3.070361
3.120304
4.458700
4.073930
2.802693
4.856900
1.977743
4.258614
0.953117
5.015421
3.537380
3.157486
6.220566
4.375874
4.359608
6.998240
5.496734
1.036504
0.918693
0.908564
0.808790
0.870705
0.907202
1.025680
1.275524
1.377778
2.121578
3.188259
0.834723
2.911343
1.470482
1.153977
0.163751
4.320547
4.821396
3.636422
6.061834
5.753654
4.099788
6.429689
4.645789
3.344209
4.100572
3.878702
2.531901
1.966361
3.490911
3.323890
2.349659
4.033415
2.463540
1.662897
3.591682
0.771865
0.475209
1.204382
0.983585
1.109419
1.294984
1.615802
2.275517
1.935807
0.816181
2.329770
1.793353
0.724955
6.317813
0.654807
0.885466
1.191389
0.595384
1.039190
0.915657
1.304077
0.878295
1.750972
0.588058
1.873101
1.396021
1.028911
1.121425
0.741256
1.836363
0.950139
2.599686
2.198305
2.243611
5.216183
0.741813
1.016390
1.462257
1.151110
0.747871
1.294606
2.570124
2.018515
2.569569
1.805774
1.993301
0.540183
0.687642
0.984648
0.727132
2.177252
2.534782
2.411952
1.079984
0.905813
1.409342
0.818959
3.627349
2.101221
3.798249
2.799257
2.671802
2.372832
1.312806
1.129298
1.078135
1.290254
1.330574
1.617161
1.202156
3.065966
2.744046
2.328335
3.407721
4.560273
1.684368
1.856139
1.401618
2.263094
1.741208
3.823907
2.922028
3.870599
2.076205
3.789795
2.648280
3.693195
2.522597
2.848395
2.193249
2.209867
3.203349
1.676460
2.613688
2.029030
2.155849
1.429014
1.498865
2.056503
2.808098
2.193446
2.362257
2.385354
3.911956
1.804405
1.931459
2.117676
1.433179
2.109777
1.446610
1.056111
2.963915
1.181660
1.206432
1.960770
1.718913
3.261926
1.230971
1.896746
2.636122
1.231135
2.654024
4.298295
0.997343
1.147411
0.807367
0.080643
2.189620
1.466457
4.813606
5.328916
4.054657
3.338058
1.964638
2.168053
1.198001
2.376832
0.866334
5.288513
2.912138
2.322794
4.079472
1.301219
1.121138
1.075786
0.931877
2.118904
1.541206
5.312148
2.018234
3.001713
3.244226
4.026094
0.932026
1.447593
1.112566
3.185217
3.101312
2.763129
2.066048
2.397968
1.503305
1.880350
1.341886
1.640324
1.103492
1.100680
3.212641
4.104063
3.530962
2.107838
2.788614
3.232956
2.639707
1.816689
2.023225
1.907488
1.992770
1.307043
2.912894
1.436100
3.468678
4.148869
4.643974
4.274076
4.783737
2.100282
0.843675
2.476049
1.854644
1.329862
3.929776
4.160651
5.071894
3.087569
3.906670
3.920671
2.286663
2.639633
0.851714
0.754961
0.659447
1.031711
0.730729
0.611949
2.523129
2.532103
2.174929
1.959069
2.970114
2.297780
2.300484
2.352623
2.207931
2.337391
3.119327
3.932450
2.478847
1.688206
1.128765
1.440239
1.536174
1.196685
1.039783
1.260589
1.856338
4.699464
2.448351
1.042939
1.054641
0.944474
5.867553
2.661220
1.515688
2.501756
2.717783
2.579605
2.014145
1.764161
3.026401
2.227142
3.640554
3.062310
1.872844
2.248889
2.630024
2.991452
2.692872
3.221252
4.210039
2.555195
4.687256
4.062331
5.135198
5.098268
1.586952
1.249761
4.069411
5.427489
4.514533
5.986159
5.546003
3.671164
2.692281
3.032422
1.190688
1.318287
1.282642
1.296428
1.439388
1.205309
1.228321
1.034751
4.566134
4.834862
4.719940
1.893447
4.509133
3.897940
4.365270
1.952862
1.774740
1.459824
3.580313
1.470383
1.090170
2.309548
1.487342
1.300666
3.621287
3.748917
2.598228
2.092003
1.568771
1.021925
2.115427
1.691931
6.413568
6.242602
2.031261
1.504638
3.425318
4.022486
3.477055
3.617571
2.888567
1.758914
3.717155
3.193227
2.356464
0.877698
0.950996
0.685114
2.891811
2.925257
1.083120
2.284303
1.601112
2.762630
3.567406
3.356318
1.750987
1.827042
3.541830
3.873995
2.970710
3.352375
4.387361
4.648910
3.930263
4.298454
1.703128
1.880032
1.971725
1.958991
0.921313
2.344241
2.092292
1.620527
4.393178
3.755409
2.761713
5.012394
4.972614
1.810401
1.378727
2.023503
1.929486
1.345400
1.139180
1.079646
2.540528
0.749689
2.742916
1.818759
1.544850
2.470386
2.103256
1.602875
1.680167
0.924563
0.869210
1.449569
3.299078
2.752552
5.116369
0.701547
2.711549
1.981788
2.100456
3.229258
0.830402
0.865403
0.936816
1.525121
1.388380
1.646211
1.238881
0.906101
1.215220
1.036539
1.727749
1.474746
1.974351
3.020570
3.189300
5.470481
4.813788
3.494220
1.541401
5.940553
5.319562
4.477357
1.326886
2.227067
1.549718
2.305843
1.960600
6.053682
5.037549
2.342376
1.924670
4.382028
2.497880
1.931571
2.030724
1.601577
1.148181
4.985051
5.219231
3.745851
1.744404
1.033924
1.205353
0.868436
0.660875
1.701248
1.309394
2.274591
1.174786
1.170049
3.097217
2.616129
3.382128
1.440465
1.904492
2.081950
2.301675
2.214160
2.334222
3.639798
3.695216
1.948327
3.342452
3.106512
0.438666
0.244069
0.692894
0.565907
0.278261
0.304406
0.231335
0.651225
0.064019
0.607626
1.473522
1.342334
2.065559
0.449011
1.149716
0.350946
0.749163
0.968504
0.957459
1.958892
1.880242
1.600941
1.337205
1.041562
0.611652
0.972382
0.696973
0.979200
0.871575
0.499554
0.257188
0.327406
0.336653
1.002885
0.727274
1.478974
0.855534
1.847114
1.795491
0.513870
0.183322
0.631636
0.337500
0.428984
0.343871
0.295921
1.068783
0.584262
1.682713
2.389005
1.714213
2.139583
1.818602
1.406700
2.067801
0.411134
0.608413
0.632935
0.812368
0.408760
0.825152
0.792160
1.308776
0.751379
1.457145
0.573603
0.813630
2.294002
2.071790
0.819946
0.915997
0.997223
0.598368
2.463994
1.951798
0.918343
1.232821
2.330232
1.675699
2.015623
1.862758
0.454693
1.083343
2.068200
1.118967
2.150346
1.389028
2.764015
2.427062
0.202309
0.389976
2.868718
2.228566
