# vtk DataFile Version 2.0
Unstructured Grid Example
ASCII
DATASET UNSTRUCTURED_GRID
POINTS 2044 float
0.817028 -0.063460 -0.229824 
0.071208 1.179812 0.226109 
-1.176154 -0.112703 0.206078 
0.100017 -0.795776 -0.245307 
0.031344 -0.025077 0.990081 
0.843001 -0.168940 -0.169681 
0.860539 -0.272820 -0.091276 
0.883061 -0.373389 -0.011153 
0.895576 -0.473009 0.073216 
0.897490 -0.574110 0.137987 
0.891411 -0.671459 0.202602 
0.853971 -0.755004 0.258440 
0.827350 -0.820269 0.274232 
0.772715 -0.862738 0.259791 
0.690664 -0.896731 0.217569 
0.601599 -0.905854 0.158655 
0.506471 -0.898177 0.080488 
0.413880 -0.890378 0.001245 
0.314700 -0.862123 -0.086594 
0.206781 -0.827795 -0.169628 
0.004800 -0.768736 -0.296083 
-0.102531 -0.740181 -0.327150 
-0.217297 -0.722156 -0.324203 
-0.323972 -0.710189 -0.296360 
-0.442449 -0.691144 -0.260968 
-0.555818 -0.686757 -0.162126 
-0.672654 -0.667395 -0.073484 
-0.783746 -0.645994 0.010977 
-0.883766 -0.606908 0.096385 
-0.983624 -0.572575 0.173562 
-1.066565 -0.514650 0.238960 
-1.131836 -0.453449 0.282283 
-1.171294 -0.377453 0.293452 
-1.192861 -0.285129 0.278863 
-1.200866 -0.195805 0.252215 
-1.132156 -0.011400 0.138025 
-1.076591 0.078994 0.054558 
-1.016075 0.171768 -0.020473 
-0.952547 0.266712 -0.089613 
-0.863198 0.352613 -0.162223 
-0.775388 0.433786 -0.212407 
-0.693682 0.520496 -0.239598 
-0.604079 0.605924 -0.258791 
-0.524898 0.698261 -0.232093 
-0.449822 0.779670 -0.184528 
-0.370709 0.870398 -0.121386 
-0.285784 0.960034 -0.050493 
-0.197499 1.029022 0.033233 
-0.116944 1.100544 0.107393 
-0.021970 1.154395 0.175691 
0.159685 1.211959 0.271793 
0.246271 1.214488 0.288646 
0.337248 1.186163 0.283892 
0.415726 1.138658 0.254076 
0.485772 1.087411 0.223034 
0.536476 1.003628 0.155081 
0.582238 0.909865 0.080072 
0.620705 0.811255 -0.000014 
0.639445 0.686370 -0.076925 
0.669781 0.582261 -0.161823 
0.701275 0.477856 -0.214595 
0.712902 0.369821 -0.267918 
0.728782 0.265195 -0.303464 
0.754889 0.152738 -0.298358 
0.788806 0.045896 -0.274586 
0.842190 -0.039270 -0.126164 
0.859349 -0.023196 -0.017276 
0.878298 -0.013690 0.099048 
0.884194 -0.010746 0.216243 
0.863099 -0.014534 0.321571 
0.835752 -0.013437 0.435143 
0.795769 -0.014291 0.541145 
0.738421 -0.028354 0.645988 
0.672922 -0.022849 0.731516 
0.606624 -0.025752 0.818543 
0.520368 -0.027945 0.878697 
0.430411 -0.031994 0.933801 
0.332734 -0.028688 0.972670 
0.231521 -0.026704 0.986559 
0.131169 -0.027665 0.995963 
0.035602 0.072431 0.975045 
0.033261 0.166329 0.957895 
0.032190 0.259470 0.931577 
0.032233 0.350534 0.902523 
0.028034 0.431307 0.855970 
0.015496 0.517289 0.826026 
0.010375 0.594859 0.789466 
0.008786 0.681340 0.741161 
0.010109 0.762063 0.686555 
0.003918 0.844011 0.650546 
0.014442 0.921050 0.606145 
0.025822 0.970929 0.539749 
0.030620 1.042953 0.479030 
0.039626 1.100293 0.407550 
0.051466 1.150966 0.326352 
-0.065064 -0.018387 0.975319 
-0.157853 -0.012154 0.962815 
-0.251476 -0.004467 0.935984 
-0.342266 0.004136 0.901574 
-0.427383 0.007688 0.870516 
-0.512918 0.009948 0.834539 
-0.594812 0.004767 0.794774 
-0.675062 -0.000159 0.747146 
-0.759518 -0.002691 0.699727 
-0.840769 -0.007225 0.650781 
-0.912708 -0.010089 0.590123 
-0.982279 -0.016307 0.528748 
-1.041343 -0.030856 0.460841 
-1.095913 -0.051285 0.385632 
-1.148656 -0.078416 0.300213 
0.025352 -0.124528 0.989419 
0.019188 -0.225308 0.982578 
0.016406 -0.322083 0.962940 
0.006160 -0.417926 0.921770 
0.002267 -0.514745 0.873151 
-0.013662 -0.598697 0.807786 
-0.019877 -0.674485 0.735574 
-0.012309 -0.747084 0.656789 
-0.013946 -0.798203 0.557315 
-0.010216 -0.832637 0.447034 
0.007958 -0.864853 0.326102 
0.016401 -0.872968 0.201330 
0.032552 -0.861628 0.083473 
0.048176 -0.844835 -0.032652 
0.072942 -0.825498 -0.138329 
0.765416 0.402777 0.316690 
0.396463 0.315644 0.845774 
0.382950 0.930816 0.581621 
0.820006 0.288802 0.079789 
0.824259 0.243795 -0.034095 
0.826228 0.181715 -0.067752 
0.792734 0.167630 -0.161472 
0.550953 0.839448 0.460328 
0.585889 0.274289 0.752508 
0.309404 0.640627 0.751464 
0.703119 0.619758 0.223677 
0.749047 0.246808 0.519109 
0.696681 0.652171 0.108112 
0.778477 0.149659 0.505200 
0.251982 0.486712 0.842755 
0.247114 0.832500 0.689656 
0.745156 0.489572 0.033313 
0.809907 0.177876 0.339225 
0.173444 0.370713 0.893325 
0.171308 0.954518 0.624625 
0.460894 0.750356 0.638844 
0.461928 0.464067 0.763713 
0.447340 1.044179 0.391564 
0.480514 0.113720 0.874863 
0.755935 0.417121 -0.077430 
0.845496 0.145538 0.208045 
0.128132 0.306660 0.927082 
0.125966 1.011591 0.561229 
0.318565 1.134800 0.393266 
0.331184 0.081501 0.962834 
0.751325 0.322060 -0.190348 
0.858575 0.077050 0.131317 
0.617120 0.535588 0.591125 
0.121254 0.243272 0.942367 
0.121494 1.059506 0.513407 
0.269371 1.167875 0.369212 
0.268842 0.055177 0.976871 
0.852051 0.084494 -0.024890 
0.764862 0.239923 -0.232322 
0.823072 0.066802 -0.131156 
0.704592 0.378232 0.549411 
0.667523 0.597252 0.414318 
0.565717 0.720496 0.543322 
0.583415 0.398272 0.690679 
0.736845 0.525405 0.224821 
0.771916 0.298259 0.408609 
0.722140 0.460535 0.406060 
0.437238 0.607688 0.717263 
0.385237 0.142513 0.924377 
0.366139 1.079195 0.443435 
0.430060 0.993624 0.505599 
0.454482 0.225653 0.868838 
0.379002 0.692520 0.699596 
0.380353 0.554002 0.758835 
0.519820 0.806282 0.567488 
0.529772 0.370295 0.752643 
0.326334 0.415750 0.838242 
0.313822 0.865152 0.650736 
0.504606 0.937973 0.431103 
0.542553 0.205753 0.816198 
0.352602 0.484955 0.799823 
0.353328 0.779705 0.673761 
0.282836 0.354822 0.870468 
0.274966 0.933066 0.616512 
0.788185 0.403638 0.121485 
0.824082 0.227992 0.212357 
0.494003 0.295578 0.808707 
0.474416 0.896331 0.533246 
0.422485 0.844245 0.610758 
0.429869 0.388016 0.804435 
0.136609 0.530690 0.838413 
0.125393 0.815765 0.690476 
0.236791 0.738881 0.719603 
0.240742 0.574984 0.807332 
0.111748 0.445297 0.857155 
0.097380 0.898243 0.647286 
0.693927 0.259032 0.626847 
0.652577 0.716252 0.330214 
0.511111 1.028263 0.276669 
0.560822 0.043018 0.849179 
0.223280 0.988435 0.582121 
0.227454 0.306701 0.899567 
0.256582 1.110008 0.463109 
0.266541 0.154107 0.955625 
0.497863 0.660103 0.672586 
0.479407 0.528276 0.729261 
0.319705 0.244430 0.905730 
0.313310 1.023051 0.538770 
0.845262 0.176245 0.051474 
0.783613 0.324392 -0.064179 
0.219102 0.438382 0.869532 
0.208099 0.888798 0.662557 
0.447782 1.094860 0.301894 
0.473169 0.024361 0.897141 
0.388150 1.124275 0.349119 
0.406008 0.048392 0.935322 
0.095183 0.382260 0.890214 
0.089427 0.955975 0.601976 
0.148344 1.115588 0.456807 
0.152592 0.164251 0.960014 
0.197839 0.242584 0.933306 
0.197514 1.050641 0.528680 
0.666294 0.444955 0.575881 
0.650751 0.578821 0.502640 
0.599875 0.637342 0.556492 
0.608775 0.463863 0.649804 
0.749837 0.375582 0.406245 
0.736015 0.488834 0.310451 
0.683522 0.499003 0.507111 
0.573634 0.874160 0.361470 
0.619647 0.188687 0.751727 
0.760599 0.481368 0.146363 
0.798015 0.260706 0.321758 
0.699394 0.540528 0.420772 
0.716451 0.418144 0.487726 
0.780762 0.332489 0.341262 
0.740413 0.334293 0.487513 
0.706710 0.573686 0.333912 
0.541408 0.700239 0.613565 
0.539318 0.466361 0.710893 
0.802686 0.330781 0.225363 
0.769505 0.439105 0.225472 
0.836791 0.199881 0.133806 
0.799503 0.242519 -0.137972 
0.605328 0.739205 0.453351 
0.635987 0.321975 0.682290 
0.699214 0.319239 0.582239 
0.671254 0.657319 0.375659 
0.566464 0.612102 0.619727 
0.539426 0.557183 0.675276 
0.199032 0.661998 0.770333 
0.621168 0.649815 0.472529 
0.652422 0.389272 0.625687 
0.109919 0.626531 0.788648 
0.115048 0.713780 0.735229 
0.659018 0.727545 0.229126 
0.724181 0.184620 0.603659 
0.810505 0.038338 -0.207355 
0.597804 0.118289 0.802650 
0.547176 0.953891 0.320585 
0.773528 0.054341 0.571729 
0.656325 0.719288 0.040841 
0.778196 0.226172 0.408409 
0.739454 0.557419 0.126639 
0.695591 0.602938 -0.022562 
0.806003 0.074769 0.453236 
0.176565 0.062416 0.984220 
0.186888 1.173220 0.368385 
0.855738 0.054958 0.243362 
0.728740 0.420877 -0.168935 
0.717489 0.502672 -0.112689 
0.840931 0.070005 0.337018 
0.785004 0.390772 0.020380 
0.669512 0.218957 0.690183 
0.617595 0.794514 0.342654 
0.118431 1.181842 0.319073 
0.096139 0.033004 0.987832 
0.098402 0.100425 0.977086 
0.110944 1.148581 0.379141 
0.618221 0.828696 0.116679 
0.716586 0.046035 0.677700 
0.574394 0.937311 0.203498 
0.646078 0.045788 0.772117 
0.653921 0.738350 0.131211 
0.749090 0.107137 0.603939 
0.609639 0.841069 0.246599 
0.680961 0.129281 0.704765 
0.716738 0.580958 0.059034 
-0.432798 0.448712 0.645411 
-0.356938 0.857757 0.273640 
-0.846601 0.353902 0.234768 
-0.310312 0.311082 0.800361 
-0.227613 0.263975 0.861035 
-0.182903 0.191792 0.903691 
-0.127117 0.120874 0.943192 
-0.317377 0.776599 0.454575 
-0.772077 0.320560 0.432592 
-0.636594 0.637836 0.040406 
-0.280500 0.606367 0.651617 
-0.607897 0.298890 0.636116 
-0.183037 0.590210 0.717896 
-0.623135 0.195769 0.691437 
-0.483912 0.786105 0.036855 
-0.783754 0.475484 0.001020 
-0.201930 0.487341 0.771085 
-0.469973 0.221362 0.757862 
-0.360910 0.907718 0.047202 
-0.903759 0.344356 0.007042 
-0.723618 0.498242 0.222836 
-0.501508 0.728951 0.243347 
-0.142439 0.918844 0.480566 
-0.909165 0.148947 0.453751 
-0.144487 0.405519 0.823385 
-0.386208 0.167574 0.827015 
-0.279749 0.976489 0.070890 
-0.971307 0.261089 0.024600 
-0.085259 1.011307 0.403746 
-1.016249 0.087584 0.372853 
-0.310290 0.094701 0.878596 
-0.063870 0.327187 0.891865 
-0.564071 0.563596 0.382737 
-0.216129 1.022367 0.126503 
-1.009978 0.193836 0.067945 
-0.052175 1.061708 0.377757 
-1.055670 0.045916 0.346625 
-0.195672 0.099223 0.924225 
-0.075187 0.201009 0.930391 
-0.120402 0.047800 0.956407 
-0.418915 0.602454 0.519100 
-0.613120 0.431711 0.513055 
-0.442170 0.691020 0.385131 
-0.695905 0.449993 0.369280 
-0.532404 0.344805 0.649941 
-0.338713 0.528521 0.649303 
-0.488108 0.492100 0.564476 
-0.610413 0.622887 0.158279 
-0.172742 0.970902 0.396466 
-0.961396 0.175120 0.354783 
-0.259798 0.890869 0.389525 
-0.881646 0.263798 0.351070 
[...]
POINT_DATA 2044
SCALARS u float 1
LOOKUP_TABLE default
6.940706
6.871319
6.780374
7.724826
0.954904
5.512732
3.921378
2.580842
2.763620
3.988845
5.565173
6.846623
7.392502
7.105882
6.103356
4.771958
3.461205
3.242043
4.374812
6.049684
8.929814
9.619010
9.396683
8.546026
7.495355
5.018717
3.099966
2.277871
3.449629
5.344842
7.045224
8.260351
8.630479
8.353772
7.847877
5.152814
3.697466
3.095130
3.448803
4.663409
5.800835
6.394695
6.843998
6.172802
5.055247
3.651875
2.657943
2.819879
4.130046
5.750293
8.154040
8.658042
8.496065
7.720999
7.011484
5.369205
3.854751
3.125124
3.756507
5.318753
6.479750
7.881020
8.787137
8.697599
8.023506
6.333258
5.674936
4.785733
3.959304
3.503403
2.800150
2.241119
1.715813
1.410105
1.353857
1.304238
1.346595
1.237714
1.051634
0.997341
1.114227
1.144841
1.184126
1.161298
1.278870
0.961995
1.017548
1.006858
1.252823
2.214252
3.257543
3.833195
4.842068
5.703393
6.493209
0.984867
0.995255
1.023772
1.070372
1.064940
1.013930
1.048956
1.184350
1.541910
2.215551
2.842107
3.652301
4.452139
5.275899
6.135619
0.857519
0.827694
0.837854
0.827660
1.022715
1.179258
1.347384
1.511125
1.900218
2.517764
3.383500
4.366544
5.312389
6.225538
6.927181
3.423838
1.941578
5.145327
5.748480
6.810135
7.179592
7.980980
3.484308
2.086463
2.028599
1.535878
2.753628
2.337198
2.859673
1.565329
3.712713
4.642638
4.236895
1.389545
5.016310
3.098270
1.848652
6.526158
1.665726
6.200930
5.038703
1.224981
5.375790
7.775501
1.349026
7.712171
5.353295
1.649171
1.226644
5.959940
8.046837
1.240753
6.534848
8.385052
7.303803
2.447089
0.832805
2.210978
2.021654
2.855849
3.508250
2.441956
2.040845
1.645099
6.982965
6.061711
1.840598
2.575325
1.728358
3.513526
2.008185
1.713887
4.373604
4.847172
1.883113
1.611280
3.408060
1.737362
5.075908
4.631328
5.193008
1.983420
4.639017
4.073777
1.874548
1.353806
2.769639
2.475398
1.673577
1.305344
3.751089
2.315746
0.739363
6.043018
1.623752
5.631746
1.556398
7.306945
1.336979
2.444626
1.849347
1.743300
6.233694
6.328867
6.773374
1.544428
4.252917
7.190452
1.364086
7.602719
1.432078
1.261020
4.368264
6.869213
1.285184
1.266025
6.339271
1.977860
1.211081
1.599038
1.820839
3.128979
2.708553
1.591310
3.539938
2.008799
3.822691
4.250956
1.340119
2.397737
3.737281
2.902871
1.279549
2.634637
1.791767
4.440749
3.648545
5.774745
7.651484
2.005742
2.250092
2.557155
0.608596
1.921748
1.843127
1.968047
1.057133
2.114879
1.446690
1.770197
0.974540
2.457328
7.630937
1.829708
4.785977
2.363713
2.556046
3.690675
3.180169
3.973121
3.187805
1.110297
7.807595
4.453777
6.847841
5.751316
3.889957
5.521698
2.225582
2.111109
7.465814
1.059692
1.109292
6.939731
2.592705
1.881353
4.266609
1.670549
1.731862
2.321454
2.606793
2.066103
3.590732
2.870384
1.554748
2.471402
2.078210
1.655039
1.425808
1.155530
1.538135
2.054430
5.646725
1.734044
2.084471
1.238897
1.301114
4.219779
5.065826
1.535151
2.001793
2.450041
3.434660
4.251650
3.759041
1.474483
0.804313
1.645451
1.721514
1.843632
2.610301
3.169750
2.612514
1.546408
1.260810
4.252540
2.321984
2.371417
4.180554
3.548749
1.322243
1.275183
1.114001
3.114653
3.213795
3.299609
3.627602
2.630982
2.584822
3.257802
5.361736
1.903869
1.043901
0.404662
0.945681
5.112488
5.348277
2.784526
3.377174
3.088413
4.027262
0.218931
0.815482
4.853978
4.226032
3.015843
2.163815
2.016818
2.320554
2.281059
1.565699
3.500633
2.699705
5.749141
5.085057
5.924894
5.440026
3.755880
4.691540
2.223867
1.765087
2.239613
1.657653
1.463586
2.213147
2.623983
1.851628
5.029080
4.656519
1.295797
0.982104
1.683592
4.411307
3.440913
2.884679
2.301950
2.974822
2.395657
3.739064
2.780337
3.248990
2.744469
1.721988
1.882087
3.802241
3.901349
4.201134
3.938583
2.860309
3.007324
3.753187
0.250459
0.878066
2.435049
2.183915
3.419232
3.206606
2.575014
2.978591
2.889378
1.678992
3.936498
4.146743
2.408027
2.807011
1.499422
2.488167
2.793565
2.657974
2.930674
4.524255
4.780560
6.206750
3.569406
3.445167
6.428626
6.403788
1.203908
1.003224
0.445151
0.986194
0.590525
0.720421
2.021948
2.124908
1.344020
0.838140
4.772151
4.280280
1.408717
1.388689
1.116273
1.352026
1.638903
1.045941
5.389783
5.810708
4.199824
4.750786
2.059665
0.725135
0.521048
1.233160
0.933949
0.911627
0.549530
0.791207
0.388596
0.266163
1.136560
1.059949
1.393345
5.527255
5.558834
1.091327
1.007755
1.008886
4.148039
3.926943
0.445136
2.056771
1.749447
1.795929
1.934685
4.310267
4.058514
1.577771
1.213862
6.864587
7.128457
2.870138
3.351499
4.675121
5.222418
1.085367
0.966925
7.998988
8.475091
5.701317
6.423864
0.998988
0.914900
1.280474
8.115464
9.049785
6.024102
6.840092
0.995636
0.959191
2.013036
1.758633
3.079255
2.693052
1.328303
1.650821
1.320967
0.857382
5.793770
6.418140
5.377592
5.795652
2.133273
1.523036
3.933144
3.822093
5.077074
4.992489
4.531500
4.790981
3.294272
3.688387
6.406479
6.215016
1.342777
1.108042
4.883790
4.911718
4.415614
4.600681
3.779516
4.395372
1.858623
2.623102
6.146599
6.361168
2.340272
2.602939
3.150249
3.909127
7.053838
7.328976
6.820177
7.750508
1.126187
2.191539
7.015042
6.429697
1.069113
0.983356
5.637555
5.563201
3.646142
4.439125
4.737281
5.511806
7.676276
7.375347
7.736075
8.792879
8.376600
7.554277
1.966005
1.648219
1.908921
2.238012
1.711916
1.293879
1.318017
3.397622
3.705012
1.344095
1.571739
1.495854
1.605466
1.580617
2.040941
1.559202
2.819198
2.310188
1.257910
1.231531
3.265844
2.904379
2.685708
2.005830
1.086913
1.316045
1.347814
0.743374
2.158287
2.462698
1.452551
2.012341
2.321360
2.262040
3.943625
3.389370
1.574306
1.858528
1.783740
1.623362
1.484169
1.432097
6.852563
7.730368
1.030401
0.943888
1.189050
1.216143
2.890813
2.966504
8.011224
7.135797
8.758657
7.678304
1.078647
1.871150
2.122777
2.710231
2.434314
1.475982
1.910150
2.230548
2.673826
2.692133
0.928525
0.782395
0.847050
0.813993
3.774485
2.030139
2.031387
0.901429
0.998642
2.031138
3.339251
4.981792
4.798393
2.414125
2.360197
6.143506
1.623446
6.330986
0.767029
0.664765
1.960674
4.628447
0.540702
1.872687
1.413832
3.123350
3.327280
3.509893
1.601162
1.326257
2.762340
3.178477
1.026572
2.092786
1.177321
2.000559
2.741626
4.432299
3.935133
1.026615
2.973828
1.075250
1.852241
3.143874
5.279454
3.196087
4.789768
3.445220
2.146282
5.268957
4.584886
2.942436
1.755448
1.453351
2.751906
2.014782
2.557152
2.872235
4.056147
3.003770
1.056409
2.174254
4.157416
2.002706
2.638225
1.891170
1.480134
0.249306
2.867505
1.011176
2.443387
3.480518
2.668749
2.900473
1.192119
1.158508
1.852655
1.205356
2.326174
1.074291
1.936353
5.958787
5.037773
1.249221
1.377894
1.321185
2.118122
1.188819
3.411273
3.320536
1.550552
0.706474
1.394862
1.041571
1.703479
0.901689
3.813232
1.289915
2.705781
1.302925
1.018210
3.031649
4.243984
0.940446
1.254337
2.543091
4.966745
4.118375
3.871762
4.835962
5.019511
3.180837
4.492352
5.487393
1.635731
1.219186
4.485702
3.639643
4.821966
4.362959
5.336279
2.724345
4.271218
3.462756
2.881068
2.439990
5.108505
2.877871
5.636448
2.576292
1.789917
3.856958
3.839137
1.400658
3.473605
5.273740
1.105252
0.979146
1.241086
6.686322
1.479663
5.381699
7.261874
1.337484
5.413557
1.091366
0.932819
6.068358
4.564625
0.948508
2.710267
3.161997
4.506985
1.899591
1.785502
5.773536
0.911690
6.209268
0.863691
5.739219
0.201941
7.212524
1.033831
6.329585
1.091389
1.975808
7.266819
0.761664
1.200743
6.354251
3.558694
4.774061
1.159777
3.144466
2.480431
2.028419
2.984420
2.146827
3.161372
3.099694
2.828485
3.145209
3.129697
1.883032
1.091356
1.612357
5.028820
3.974445
0.895771
5.510202
3.722554
3.896176
4.550406
1.319102
5.632699
3.696214
3.039016
6.405969
2.958760
4.714774
2.255366
1.979736
5.599602
3.530345
4.895175
3.798622
5.431800
2.564991
1.681774
1.842342
2.690496
2.572867
2.112637
3.097429
1.186231
1.722850
6.324343
6.040909
5.247086
2.873389
1.619473
5.097083
1.336180
3.190161
2.864626
5.946328
7.199639
4.623897
1.202398
1.180058
4.357556
4.482590
3.898155
2.552395
1.197091
6.966399
3.430893
2.843132
3.048230
2.364937
0.929644
3.277348
6.582332
3.307691
5.526705
5.010456
4.391977
4.455235
2.680649
3.151242
4.808275
2.416128
2.108661
1.649233
2.011037
4.416702
2.925957
4.106028
2.835438
1.717892
1.859417
5.102272
1.165001
3.108442
5.414433
7.293613
3.347925
5.315464
3.379681
1.418913
5.227105
1.688752
2.136228
7.365211
1.976859
3.159888
1.392998
1.719958
4.074906
6.770389
2.385022
3.052208
7.933859
3.240185
4.173244
4.062898
5.686843
4.159648
3.539257
1.650792
3.805983
2.351096
3.497348
0.953564
1.319730
6.607259
7.362655
3.311589
1.177398
4.589929
2.392305
3.166327
3.129770
2.842766
4.583597
6.890096
4.474160
4.002523
1.879789
1.433930
2.626911
4.710605
2.837907
3.974014
5.577746
2.582764
6.530592
4.543916
2.614329
3.220198
1.317818
2.317764
3.825186
5.554890
2.801282
2.600116
2.098032
2.413821
1.042001
1.587267
3.954739
4.452843
1.115518
4.977500
5.818196
2.538790
5.368813
6.794674
2.738715
3.097116
5.424770
3.323958
2.508711
3.253461
2.535799
1.324982
2.819309
2.277134
1.129738
1.630065
3.410974
4.895487
4.137361
6.557834
3.359089
4.760810
5.427016
7.438148
8.588129
1.202271
2.013762
2.692414
3.948685
2.748247
4.190652
1.203202
5.532720
1.543328
4.494374
6.599387
3.853342
2.855710
4.522118
5.662416
2.602176
2.648532
1.349529
1.046876
3.079827
5.475512
7.479697
3.147088
5.654217
3.126319
4.132979
4.474865
5.587467
6.988696
6.640604
3.208219
3.913749
1.118234
4.242783
2.519355
4.350857
3.389663
2.802757
6.662079
7.329935
2.635983
1.246467
1.218034
3.934512
3.645575
7.491526
2.769084
5.959176
3.905897
6.588938
6.320424
8.289099
2.304913
4.932293
7.904110
3.411208
7.682748
2.313720
3.329452
3.623330
4.574075
3.504532
5.741748
6.023616
2.587561
1.927335
1.632808
2.145445
2.678736
2.633366
5.094532
1.982345
3.240554
1.820636
3.242359
5.306587
1.418024
3.363113
3.482303
0.879134
1.431443
3.398184
1.722837
1.764502
5.887082
3.711072
4.983606
5.231556
4.246508
2.718117
6.333114
4.356740
6.037882
3.061361
6.088533
3.306333
3.415309
3.732085
2.510264
2.017895
7.711967
1.115032
1.485175
4.821513
2.302928
3.938372
2.281770
4.491880
1.593084
3.199069
2.562319
4.882789
5.407239
4.540470
1.885109
2.188806
2.061324
7.790268
6.763702
2.722922
2.552947
1.157364
6.458784
2.389357
2.595089
2.490669
0.973276
1.764747
1.388587
2.191933
1.115885
6.026013
3.513943
3.539257
5.429671
4.352016
2.794053
6.596953
3.748534
4.563900
2.698123
4.472003
3.296347
3.169010
3.925297
2.692004
4.780029
6.778932
3.950139
1.727388
1.828538
3.794844
4.107162
5.704793
2.189378
3.295049
3.125698
3.725656
2.861974
1.279504
5.845669
2.554390
4.182290
2.176850
6.561320
3.058558
2.878911
4.620720
1.949549
4.711839
0.849832
3.478114
4.276725
2.371896
6.024487
1.947863
1.296028
5.820589
3.137282
1.221904
1.744517
2.748433
4.226285
3.647263
1.354508
3.599127
5.573353
5.185383
7.143411
3.482096
7.915062
6.104010
5.728497
3.030535
2.186205
4.599515
4.312041
8.073614
3.868469
4.033688
4.152921
1.072675
2.927346
5.172488
2.529156
3.804904
3.692268
1.478427
1.291272
4.675359
1.621020
0.940520
3.242971
2.697881
1.674328
1.560770
0.503714
0.448165
1.674774
3.828229
4.331909
0.623801
2.610803
1.471181
1.449595
0.822031
1.602565
0.851856
3.508284
1.814827
2.947043
3.855759
2.276438
1.333028
1.431120
0.394421
0.584400
1.355240
0.647273
2.401645
4.817859
4.285263
1.301123
1.820021
1.248065
0.831640
1.023200
1.077792
0.985765
0.971402
0.797411
0.732233
0.768544
0.516941
1.316382
1.338294
1.206477
0.466368
0.918045
0.876067
1.804039
1.127256
1.076785
1.092646
0.692904
0.732547
0.444674
0.978360
0.528337
0.450518
0.148877
0.667167
3.151313
3.108874
3.933227
0.672923
2.042915
1.894142
2.307654
2.404828
2.306917
1.215209
1.368904
2.376997
3.500642
3.265101
4.504561
2.023780
2.309420
4.356762
0.987805
0.664242
0.826372
0.928478
0.297760
2.154002
2.256078
1.797034
2.428799
2.775457
3.629935
3.677279
3.655837
2.515964
3.133825
2.312758
3.477930
1.690505
2.665163
1.498462
1.072801
1.093088
2.337202
2.202212
1.504557
1.081467
0.672999
0.780589
1.752762
1.830390
3.256379
3.181448
3.595946
3.008427
3.693288
2.117861
2.281461
2.540757
2.954462
2.555448
1.683576
2.506496
2.615499
2.077302
1.213159
1.541866
3.528853
4.278129
0.812349
0.426419
0.380757
0.616946
0.885695
0.368028
1.004553
0.631817
0.907636
5.178602
2.633942
3.584864
5.452739
0.706193
1.335946
1.208389
1.154409
1.074163
0.823202
1.137849
0.797670
0.386539
4.357972
5.396572
2.759927
1.339935
1.922200
4.250711
1.451817
1.362321
1.780564
0.888183
0.812997
4.178111
2.172160
0.955519
1.543223
1.231617
0.984156
0.281257
1.226044
1.491456
1.047105
2.828851
2.249025
1.536390
2.246012
1.121188
4.878867
4.234057
2.979840
1.486514
0.799503
4.859801
2.085604
1.159622
3.779234
5.489615
0.641173
2.102191
1.589422
4.729798
0.857608
1.435094
0.653425
2.687692
4.047096
4.018075
1.117152
5.752885
4.696681
5.299914
6.453616
1.992723
1.062442
0.990169
0.956732
0.608322
1.120530
1.001629
1.156444
1.905295
1.075544
2.631268
4.282117
2.428051
4.425305
2.700292
2.486229
1.243192
3.875398
3.405620
2.391691
0.606126
1.401283
1.110460
1.726127
2.304754
2.981899
1.117293
2.482351
1.165580
2.735232
1.187201
0.662523
0.511120
1.859001
2.026233
2.147081
3.618421
2.538163
2.278703
1.406356
2.323296
0.584468
0.880917
1.562425
1.315091
1.400207
1.268950
0.786009
0.912714
0.923580
1.402591
1.939574
0.705829
0.366833
1.384357
2.018274
0.229828
0.773103
1.575206
0.914389
4.745363
2.562465
0.203195
4.505909
4.020585
1.983258
3.776492
3.287287
3.070361
3.120304
4.458700
4.073930
2.802693
4.856900
1.977743
4.258614
0.953117
5.015421
3.537380
3.157486
6.220566
4.375874
4.359608
6.998240
5.496734
1.036504
0.918693
0.908564
0.808790
0.870705
0.907202
1.025680
1.275524
1.377778
2.121578
3.188259
0.834723
2.911343
1.470482
1.153977
0.163751
4.320547
4.821396
3.636422
6.061834
5.753654
4.099788
6.429689
4.645789
3.344209
4.100572
3.878702
2.531901
1.966361
3.490911
3.323890
2.349659
4.033415
2.463540
1.662897
3.591682
0.771865
0.475209
1.204382
0.983585
1.109419
1.294984
1.615802
2.275517
1.935807
0.816181
2.329770
1.793353
0.724955
6.317813
0.654807
0.885466
1.191389
0.595384
1.039190
0.915657
1.304077
0.878295
1.750972
0.588058
1.873101
1.396021
1.028911
1.121425
0.741256
1.836363
0.950139
2.599686
2.198305
2.243611
5.216183
0.741813
1.016390
1.462257
1.151110
0.747871
1.294606
2.570124
2.018515
2.569569
1.805774
1.993301
0.540183
0.687642
0.984648
0.727132
2.177252
2.534782
2.411952
1.079984
0.905813
1.409342
0.818959
3.627349
2.101221
3.798249
2.799257
2.671802
2.372832
1.312806
1.129298
1.078135
1.290254
1.330574
1.617161
1.202156
3.065966
2.744046
2.328335
3.407721
4.560273
1.684368
1.856139
1.401618
2.263094
1.741208
3.823907
2.922028
3.870599
2.076205
3.789795
2.648280
3.693195
2.522597
2.848395
2.193249
2.209867
3.203349
1.676460
2.613688
2.029030
2.155849
1.429014
1.498865
2.056503
2.808098
2.193446
2.362257
2.385354
3.911956
1.804405
1.931459
2.117676
1.433179
2.109777
1.446610
1.056111
2.963915
1.181660
1.206432
1.960770
1.718913
3.261926
1.230971
1.896746
2.636122
1.231135
2.654024
4.298295
0.997343
1.147411
0.807367
0.080643
2.189620
1.466457
4.813606
5.328916
4.054657
3.338058
1.964638
2.168053
1.198001
2.376832
0.866334
5.288513
2.912138
2.322794
4.079472
1.301219
1.121138
1.075786
0.931877
2.118904
1.541206
5.312148
2.018234
3.001713
3.244226
4.026094
0.932026
1.447593
1.112566
3.185217
3.101312
2.763129
2.066048
2.397968
1.503305
1.880350
1.341886
1.640324
1.103492
1.100680
3.212641
4.104063
3.530962
2.107838
2.788614
3.232956
2.639707
1.816689
2.023225
1.907488
1.992770
1.307043
2.912894
1.436100
3.468678
4.148869
4.643974
4.274076
4.783737
2.100282
0.843675
2.476049
1.854644
1.329862
3.929776
4.160651
5.071894
3.087569
3.906670
3.920671
2.286663
2.639633
0.851714
0.754961
0.659447
1.031711
0.730729
0.611949
2.523129
2.532103
2.174929
1.959069
2.970114
2.297780
2.300484
2.352623
2.207931
2.337391
3.119327
3.932450
2.478847
1.688206
1.128765
1.440239
1.536174
1.196685
1.039783
1.260589
1.856338
4.699464
2.448351
1.042939
1.054641
0.944474
5.867553
2.661220
1.515688
2.501756
2.717783
2.579605
2.014145
1.764161
3.026401
2.227142
3.640554
3.062310
1.872844
2.248889
2.630024
2.991452
2.692872
3.221252
4.210039
2.555195
4.687256
4.062331
5.135198
5.098268
1.586952
1.249761
4.069411
5.427489
4.514533
5.986159
5.546003
3.671164
2.692281
3.032422
1.190688
1.318287
1.282642
1.296428
1.439388
1.205309
1.228321
1.034751
4.566134
4.834862
4.719940
1.893447
4.509133
3.897940
4.365270
1.952862
1.774740
1.459824
3.580313
1.470383
1.090170
2.309548
1.487342
1.300666
3.621287
3.748917
2.598228
2.092003
1.568771
1.021925
2.115427
1.691931
6.413568
6.242602
2.031261
1.504638
3.425318
4.022486
3.477055
3.617571
2.888567
1.758914
3.717155
3.193227
2.356464
0.877698
0.950996
0.685114
2.891811
2.925257
1.083120
2.284303
1.601112
2.762630
3.567406
3.356318
1.750987
1.827042
3.541830
3.873995
2.970710
3.352375
4.387361
4.648910
3.930263
4.298454
1.703128
1.880032
1.971725
1.958991
0.921313
2.344241
2.092292
1.620527
4.393178
3.755409
2.761713
5.012394
4.972614
1.810401
1.378727
2.023503
1.929486
1.345400
1.139180
1.079646
2.540528
0.749689
2.742916
1.818759
1.544850
2.470386
2.103256
1.602875
1.680167
0.924563
0.869210
1.449569
3.299078
2.752552
5.116369
0.701547
2.711549
1.981788
2.100456
3.229258
0.830402
0.865403
0.936816
1.525121
1.388380
1.646211
1.238881
0.906101
1.215220
1.036539
1.727749
1.474746
1.974351
3.020570
3.189300
5.470481
4.813788
3.494220
1.541401
5.940553
5.319562
4.477357
1.326886
2.227067
1.549718
2.305843
1.960600
6.053682
5.037549
2.342376
1.924670
4.382028
2.497880
1.931571
2.030724
1.601577
1.148181
4.985051
5.219231
3.745851
1.744404
1.033924
1.205353
0.868436
0.660875
1.701248
1.309394
2.274591
1.174786
1.170049
3.097217
2.616129
3.382128
1.440465
1.904492
2.081950
2.301675
2.214160
2.334222
3.639798
3.695216
1.948327
3.342452
3.106512
0.438666
0.244069
0.692894
0.565907
0.278261
0.304406
0.231335
0.651225
0.064019
0.607626
1.473522
1.342334
2.065559
0.449011
1.149716
0.350946
0.749163
0.968504
0.957459
1.958892
1.880242
1.600941
1.337205
1.041562
0.611652
0.972382
0.696973
0.979200
0.871575
0.499554
0.257188
0.327406
0.336653
1.002885
0.727274
1.478974
0.855534
1.847114
1.795491
0.513870
0.183322
0.631636
0.337500
0.428984
0.343871
0.295921
1.068783
0.584262
1.682713
2.389005
1.714213
2.139583
1.818602
1.406700
2.067801
0.411134
0.608413
0.632935
0.812368
0.408760
0.825152
0.792160
1.308776
0.751379
1.457145
0.573603
0.813630
2.294002
2.071790
0.819946
0.915997
0.997223
0.598368
2.463994
1.951798
0.918343
1.232821
2.330232
1.675699
2.015623
1.862758
0.454693
1.083343
2.068200
1.118967
2.150346
1.389028
2.764015
2.427062
0.202309
0.389976
2.868718
2.228566
