# vtk DataFile Version 2.0
Unstructured Grid Example
ASCII
DATASET UNSTRUCTURED_GRID
POINTS 2044 float
1.209127 0.072532 0.262677 
-0.081387 0.794484 -0.258431 
-0.798666 0.128814 -0.235536 
-0.114314 -1.233418 0.280373 
-0.035825 0.028661 1.011337 
1.169123 -0.016956 0.193936 
1.118220 -0.106249 0.104323 
1.041381 -0.195301 0.012748 
0.956229 -0.279446 -0.083683 
0.864128 -0.354000 -0.157712 
0.762959 -0.423115 -0.231564 
0.680476 -0.496541 -0.295383 
0.569675 -0.577769 -0.313432 
0.476299 -0.670456 -0.296927 
0.401165 -0.756879 -0.248670 
0.322582 -0.854567 -0.181334 
0.241201 -0.953256 -0.091994 
0.149022 -1.033018 -0.001423 
0.058383 -1.116410 0.098972 
-0.026295 -1.186502 0.193876 
-0.215532 -1.254003 0.338407 
-0.300881 -1.255783 0.373916 
-0.373706 -1.225286 0.370547 
-0.449787 -1.168117 0.338723 
-0.504483 -1.099970 0.298272 
-0.555287 -0.996868 0.185302 
-0.590663 -0.893723 0.083988 
-0.619512 -0.776955 -0.012546 
-0.646422 -0.665808 -0.110163 
-0.657565 -0.536135 -0.198372 
-0.670884 -0.421960 -0.273119 
-0.686196 -0.301802 -0.322635 
-0.711946 -0.190656 -0.335400 
-0.738394 -0.092180 -0.318726 
-0.760101 0.013749 -0.288268 
-0.838634 0.223075 -0.157755 
-0.871285 0.327782 -0.062357 
-0.889353 0.425743 0.023400 
-0.891114 0.515233 0.102423 
-0.903321 0.607160 0.185412 
-0.895568 0.694764 0.242769 
-0.863678 0.764572 0.273848 
-0.824862 0.822753 0.295785 
-0.759540 0.858445 0.265271 
-0.676435 0.890674 0.210906 
-0.586478 0.895092 0.138738 
-0.493435 0.882557 0.057711 
-0.396334 0.874555 -0.037984 
-0.284407 0.843907 -0.122745 
-0.184934 0.813216 -0.200806 
0.027534 0.747423 -0.310645 
0.136593 0.713675 -0.329907 
0.236608 0.694951 -0.324474 
0.344918 0.678399 -0.290395 
0.454967 0.647057 -0.254916 
0.577394 0.634701 -0.177249 
0.694004 0.616593 -0.091518 
0.805859 0.588071 0.000016 
0.925669 0.574987 0.087921 
1.016271 0.525064 0.184955 
1.088391 0.464014 0.245271 
1.165015 0.397385 0.306217 
1.217713 0.318960 0.346843 
1.238973 0.243496 0.341008 
1.231065 0.157589 0.313837 
1.170050 0.044883 0.354244 
1.119581 0.026512 0.437813 
1.046824 0.015647 0.508858 
0.969238 0.012282 0.572916 
0.903435 0.016612 0.642640 
0.826575 0.015358 0.693212 
0.746998 0.016334 0.740971 
0.671317 0.032407 0.776963 
0.590358 0.026115 0.820436 
0.497219 0.029433 0.846244 
0.415426 0.031939 0.885607 
0.328134 0.036568 0.912540 
0.241767 0.032789 0.938962 
0.153452 0.030521 0.974186 
0.060126 0.031620 0.994295 
-0.040692 0.127261 1.018204 
-0.038016 0.227963 1.006947 
-0.036792 0.325504 0.985929 
-0.036841 0.419428 0.948288 
-0.032042 0.517217 0.911582 
-0.017711 0.599323 0.837692 
-0.011858 0.679579 0.754203 
-0.010042 0.736557 0.668185 
-0.011554 0.785523 0.574775 
-0.004478 0.817135 0.447018 
-0.016507 0.837199 0.317387 
-0.029513 0.870105 0.203165 
-0.034997 0.858633 0.074559 
-0.045290 0.844194 -0.047739 
-0.058823 0.817135 -0.162957 
-0.135681 0.021016 1.017890 
-0.237650 0.013891 1.001325 
-0.334640 0.005106 0.980892 
-0.428878 -0.004727 0.949373 
-0.521703 -0.008787 0.894956 
-0.604320 -0.011370 0.827962 
-0.679633 -0.005449 0.748136 
-0.743733 0.000181 0.661344 
-0.788431 0.003075 0.559720 
-0.820841 0.008257 0.446749 
-0.846734 0.011531 0.335699 
-0.857132 0.018637 0.215740 
-0.860473 0.035267 0.095348 
-0.849200 0.058616 -0.022689 
-0.819775 0.089626 -0.133082 
-0.028976 -0.067717 1.001774 
-0.021931 -0.160553 0.978737 
-0.018751 -0.253941 0.950083 
-0.007041 -0.342403 0.926290 
-0.002591 -0.421852 0.891945 
0.015615 -0.506279 0.858539 
0.022718 -0.588570 0.815798 
0.014068 -0.661415 0.764618 
0.015940 -0.744216 0.722490 
0.011676 -0.830135 0.679622 
-0.009096 -0.901429 0.637461 
-0.018745 -0.982069 0.589961 
-0.037205 -1.065878 0.526660 
-0.055063 -1.136169 0.455388 
-0.083369 -1.189128 0.368148 
0.772272 0.495820 0.620389 
0.272312 0.440580 0.883675 
0.287757 0.786476 0.136582 
0.975102 0.361305 0.584982 
1.058121 0.295410 0.550693 
1.101597 0.234544 0.536581 
1.175880 0.228744 0.469332 
0.482997 0.738238 0.160875 
0.443067 0.373507 0.837606 
0.241147 0.723555 0.596875 
0.745963 0.638518 0.358301 
0.693470 0.331863 0.753555 
0.819783 0.602915 0.279734 
0.739829 0.222448 0.757433 
0.160855 0.587903 0.792218 
0.166420 0.803939 0.355948 
0.942271 0.521494 0.415041 
0.850709 0.242617 0.724857 
0.093785 0.471545 0.903937 
0.096225 0.833997 0.181337 
0.337417 0.759270 0.379368 
0.336235 0.579129 0.744004 
0.396347 0.719463 -0.117046 
0.358431 0.200515 0.912982 
1.042792 0.443055 0.420691 
0.941601 0.214833 0.660337 
0.049687 0.387426 0.942699 
0.052162 0.846110 0.096468 
0.241685 0.744357 -0.208578 
0.227262 0.147753 0.940906 
1.144849 0.368495 0.405563 
1.015446 0.113830 0.601204 
0.504903 0.638360 0.574884 
0.043930 0.321271 0.972248 
0.043656 0.838364 0.012521 
0.174055 0.745190 -0.238892 
0.174660 0.120034 0.963498 
1.096894 0.139050 0.527176 
1.185558 0.296613 0.419745 
1.171394 0.131285 0.446634 
0.590789 0.483860 0.715101 
0.633158 0.660420 0.442615 
0.477588 0.715935 0.358109 
0.457360 0.523893 0.750016 
0.792621 0.573098 0.479458 
0.743070 0.401304 0.716058 
0.684424 0.548981 0.611243 
0.324865 0.692307 0.590477 
0.263395 0.234397 0.928226 
0.285223 0.751277 -0.109540 
0.346272 0.748174 0.006481 
0.318359 0.326444 0.890799 
0.284045 0.761295 0.491366 
0.282501 0.657772 0.685500 
0.409281 0.734638 0.269255 
0.397906 0.494636 0.795945 
0.212252 0.526418 0.843745 
0.226553 0.812988 0.257841 
0.445409 0.736440 0.033381 
0.402037 0.290944 0.875622 
0.250540 0.591322 0.774839 
0.249710 0.797832 0.375527 
0.170307 0.466609 0.899291 
0.179302 0.827745 0.167511 
0.910846 0.468734 0.528183 
0.903272 0.321982 0.678291 
0.357467 0.407472 0.860770 
0.379853 0.760620 0.135829 
0.314845 0.781399 0.253883 
0.306405 0.508466 0.826900 
0.066892 0.620250 0.784564 
0.079712 0.810449 0.437623 
0.177964 0.779820 0.501373 
0.173448 0.666665 0.701583 
0.038536 0.538414 0.882468 
0.054958 0.835506 0.307552 
0.587649 0.352353 0.788623 
0.634908 0.686435 0.271005 
0.485697 0.674757 -0.157869 
0.428880 0.109181 0.879440 
0.133762 0.837670 0.089831 
0.128991 0.404623 0.939241 
0.178229 0.782342 -0.125295 
0.166846 0.227878 0.958794 
0.362097 0.703423 0.496097 
0.354881 0.629527 0.668515 
0.202253 0.352461 0.932227 
0.209561 0.798136 0.016045 
1.023476 0.233312 0.608133 
1.068007 0.377282 0.493814 
0.118807 0.537493 0.843921 
0.131381 0.821901 0.281272 
0.398062 0.684943 -0.222203 
0.369046 0.095002 0.910926 
0.319405 0.709237 -0.217195 
0.298993 0.126520 0.925200 
0.021553 0.467940 0.920701 
0.028132 0.845539 0.216816 
0.067432 0.812056 -0.097822 
0.062577 0.236554 0.989869 
0.112333 0.316994 0.964176 
0.112704 0.830067 -0.009999 
0.549450 0.560955 0.656966 
0.567215 0.653606 0.495024 
0.490943 0.682929 0.466649 
0.480771 0.572518 0.668685 
0.713981 0.479840 0.674843 
0.745984 0.560246 0.551219 
0.595329 0.590982 0.581716 
0.540183 0.709658 0.079125 
0.487593 0.276602 0.849594 
0.864684 0.528546 0.482167 
0.822914 0.364257 0.701564 
0.650397 0.607900 0.513096 
0.630902 0.516100 0.668249 
0.780927 0.433898 0.672895 
0.662881 0.440931 0.722405 
0.701401 0.623913 0.441366 
0.411534 0.716934 0.407116 
0.413923 0.575363 0.704757 
0.864714 0.423462 0.622052 
0.825276 0.514072 0.550880 
0.963687 0.286678 0.647129 
1.125199 0.291724 0.490996 
0.529808 0.722345 0.284082 
0.494766 0.434238 0.787396 
0.588668 0.425429 0.763366 
0.620625 0.677553 0.360944 
0.437711 0.682417 0.518347 
0.409918 0.644425 0.605511 
0.147352 0.735458 0.611327 
0.562988 0.696522 0.408843 
0.527266 0.504001 0.724100 
0.080351 0.708288 0.686362 
0.076071 0.770056 0.585912 
0.713220 0.656593 0.214789 
0.638177 0.264860 0.799001 
1.204936 0.133031 0.373034 
0.459387 0.194012 0.865364 
0.517252 0.692503 -0.037196 
0.707071 0.119112 0.770465 
0.839213 0.603431 0.137712 
0.786867 0.313604 0.739413 
0.833202 0.576251 0.405813 
0.924437 0.567373 0.264294 
0.797422 0.118268 0.745698 
0.093831 0.123659 0.988569 
0.082033 0.772552 -0.226047 
0.949708 0.103235 0.642908 
1.094056 0.443211 0.350500 
1.023010 0.501063 0.324880 
0.880296 0.123237 0.691852 
0.985257 0.439709 0.489452 
0.537260 0.315447 0.816073 
0.596700 0.696692 0.174223 
-0.005555 0.784267 -0.234545 
0.019923 0.092416 1.006010 
0.019956 0.161305 1.004201 
0.005621 0.808191 -0.157253 
0.729946 0.634735 0.028491 
0.617602 0.108260 0.807341 
0.605247 0.653215 -0.070511 
0.523283 0.109482 0.842072 
0.774673 0.634215 0.151225 
0.664704 0.176959 0.789430 
0.641107 0.674414 0.074126 
0.559311 0.207582 0.830567 
0.885852 0.566558 0.345757 
-0.460824 0.470198 0.909409 
-0.393383 0.869979 0.412693 
-0.882729 0.396853 0.457121 
-0.355049 0.331930 0.986780 
-0.280957 0.295097 1.001644 
-0.250824 0.222281 1.013059 
-0.199304 0.148430 1.017536 
-0.324260 0.810072 0.593151 
-0.815240 0.320622 0.618277 
-0.728164 0.726744 0.548597 
-0.293356 0.653823 0.804827 
-0.652075 0.272336 0.822544 
-0.184631 0.659622 0.809521 
-0.659984 0.180281 0.805362 
-0.591103 0.856967 0.406734 
-0.859654 0.600736 0.447692 
-0.212768 0.555642 0.895623 
-0.526470 0.213769 0.934650 
-0.482749 0.887487 0.238073 
-0.892012 0.501669 0.283973 
-0.789830 0.540069 0.609505 
-0.536336 0.783735 0.586063 
-0.167690 0.862714 0.358371 
-0.873777 0.160253 0.389020 
-0.181600 0.478918 0.952024 
-0.462598 0.154272 0.966677 
-0.418184 0.886229 0.115112 
-0.892152 0.439511 0.168018 
-0.143458 0.885504 0.144327 
-0.879855 0.140801 0.179636 
-0.396629 0.088786 0.993057 
-0.122853 0.383788 0.975560 
-0.605805 0.606348 0.772791 
-0.352295 0.880812 0.037931 
-0.894972 0.377773 0.104860 
-0.123465 0.866534 0.050176 
-0.873435 0.130619 0.085757 
-0.276194 0.120439 1.014336 
-0.144964 0.250205 1.012319 
-0.197918 0.074264 1.019465 
-0.437361 0.654475 0.802797 
-0.642284 0.422736 0.809706 
-0.473720 0.749625 0.683988 
-0.744042 0.464779 0.702105 
-0.564871 0.342792 0.891899 
-0.355068 0.579004 0.883211 
-0.517467 0.512905 0.864626 
-0.689192 0.698344 0.643701 
-0.199848 0.875050 0.250562 
-0.885916 0.197130 0.298203 
-0.287418 0.865618 0.392601 
-0.876159 0.282847 0.436553 
[...]
POINT_DATA 2044
SCALARS u float 1
LOOKUP_TABLE default
6.940706
6.871319
6.780374
7.724826
0.954904
5.512732
3.921378
2.580842
2.763620
3.988845
5.565173
6.846623
7.392502
7.105882
6.103356
4.771958
3.461205
3.242043
4.374812
6.049684
8.929814
9.619010
9.396683
8.546026
7.495355
5.018717
3.099966
2.277871
3.449629
5.344842
7.045224
8.260351
8.630479
8.353772
7.847877
5.152814
3.697466
3.095130
3.448803
4.663409
5.800835
6.394695
6.843998
6.172802
5.055247
3.651875
2.657943
2.819879
4.130046
5.750293
8.154040
8.658042
8.496065
7.720999
7.011484
5.369205
3.854751
3.125124
3.756507
5.318753
6.479750
7.881020
8.787137
8.697599
8.023506
6.333258
5.674936
4.785733
3.959304
3.503403
2.800150
2.241119
1.715813
1.410105
1.353857
1.304238
1.346595
1.237714
1.051634
0.997341
1.114227
1.144841
1.184126
1.161298
1.278870
0.961995
1.017548
1.006858
1.252823
2.214252
3.257543
3.833195
4.842068
5.703393
6.493209
0.984867
0.995255
1.023772
1.070372
1.064940
1.013930
1.048956
1.184350
1.541910
2.215551
2.842107
3.652301
4.452139
5.275899
6.135619
0.857519
0.827694
0.837854
0.827660
1.022715
1.179258
1.347384
1.511125
1.900218
2.517764
3.383500
4.366544
5.312389
6.225538
6.927181
3.423838
1.941578
5.145327
5.748480
6.810135
7.179592
7.980980
3.484308
2.086463
2.028599
1.535878
2.753628
2.337198
2.859673
1.565329
3.712713
4.642638
4.236895
1.389545
5.016310
3.098270
1.848652
6.526158
1.665726
6.200930
5.038703
1.224981
5.375790
7.775501
1.349026
7.712171
5.353295
1.649171
1.226644
5.959940
8.046837
1.240753
6.534848
8.385052
7.303803
2.447089
0.832805
2.210978
2.021654
2.855849
3.508250
2.441956
2.040845
1.645099
6.982965
6.061711
1.840598
2.575325
1.728358
3.513526
2.008185
1.713887
4.373604
4.847172
1.883113
1.611280
3.408060
1.737362
5.075908
4.631328
5.193008
1.983420
4.639017
4.073777
1.874548
1.353806
2.769639
2.475398
1.673577
1.305344
3.751089
2.315746
0.739363
6.043018
1.623752
5.631746
1.556398
7.306945
1.336979
2.444626
1.849347
1.743300
6.233694
6.328867
6.773374
1.544428
4.252917
7.190452
1.364086
7.602719
1.432078
1.261020
4.368264
6.869213
1.285184
1.266025
6.339271
1.977860
1.211081
1.599038
1.820839
3.128979
2.708553
1.591310
3.539938
2.008799
3.822691
4.250956
1.340119
2.397737
3.737281
2.902871
1.279549
2.634637
1.791767
4.440749
3.648545
5.774745
7.651484
2.005742
2.250092
2.557155
0.608596
1.921748
1.843127
1.968047
1.057133
2.114879
1.446690
1.770197
0.974540
2.457328
7.630937
1.829708
4.785977
2.363713
2.556046
3.690675
3.180169
3.973121
3.187805
1.110297
7.807595
4.453777
6.847841
5.751316
3.889957
5.521698
2.225582
2.111109
7.465814
1.059692
1.109292
6.939731
2.592705
1.881353
4.266609
1.670549
1.731862
2.321454
2.606793
2.066103
3.590732
2.870384
1.554748
2.471402
2.078210
1.655039
1.425808
1.155530
1.538135
2.054430
5.646725
1.734044
2.084471
1.238897
1.301114
4.219779
5.065826
1.535151
2.001793
2.450041
3.434660
4.251650
3.759041
1.474483
0.804313
1.645451
1.721514
1.843632
2.610301
3.169750
2.612514
1.546408
1.260810
4.252540
2.321984
2.371417
4.180554
3.548749
1.322243
1.275183
1.114001
3.114653
3.213795
3.299609
3.627602
2.630982
2.584822
3.257802
5.361736
1.903869
1.043901
0.404662
0.945681
5.112488
5.348277
2.784526
3.377174
3.088413
4.027262
0.218931
0.815482
4.853978
4.226032
3.015843
2.163815
2.016818
2.320554
2.281059
1.565699
3.500633
2.699705
5.749141
5.085057
5.924894
5.440026
3.755880
4.691540
2.223867
1.765087
2.239613
1.657653
1.463586
2.213147
2.623983
1.851628
5.029080
4.656519
1.295797
0.982104
1.683592
4.411307
3.440913
2.884679
2.301950
2.974822
2.395657
3.739064
2.780337
3.248990
2.744469
1.721988
1.882087
3.802241
3.901349
4.201134
3.938583
2.860309
3.007324
3.753187
0.250459
0.878066
2.435049
2.183915
3.419232
3.206606
2.575014
2.978591
2.889378
1.678992
3.936498
4.146743
2.408027
2.807011
1.499422
2.488167
2.793565
2.657974
2.930674
4.524255
4.780560
6.206750
3.569406
3.445167
6.428626
6.403788
1.203908
1.003224
0.445151
0.986194
0.590525
0.720421
2.021948
2.124908
1.344020
0.838140
4.772151
4.280280
1.408717
1.388689
1.116273
1.352026
1.638903
1.045941
5.389783
5.810708
4.199824
4.750786
2.059665
0.725135
0.521048
1.233160
0.933949
0.911627
0.549530
0.791207
0.388596
0.266163
1.136560
1.059949
1.393345
5.527255
5.558834
1.091327
1.007755
1.008886
4.148039
3.926943
0.445136
2.056771
1.749447
1.795929
1.934685
4.310267
4.058514
1.577771
1.213862
6.864587
7.128457
2.870138
3.351499
4.675121
5.222418
1.085367
0.966925
7.998988
8.475091
5.701317
6.423864
0.998988
0.914900
1.280474
8.115464
9.049785
6.024102
6.840092
0.995636
0.959191
2.013036
1.758633
3.079255
2.693052
1.328303
1.650821
1.320967
0.857382
5.793770
6.418140
5.377592
5.795652
2.133273
1.523036
3.933144
3.822093
5.077074
4.992489
4.531500
4.790981
3.294272
3.688387
6.406479
6.215016
1.342777
1.108042
4.883790
4.911718
4.415614
4.600681
3.779516
4.395372
1.858623
2.623102
6.146599
6.361168
2.340272
2.602939
3.150249
3.909127
7.053838
7.328976
6.820177
7.750508
1.126187
2.191539
7.015042
6.429697
1.069113
0.983356
5.637555
5.563201
3.646142
4.439125
4.737281
5.511806
7.676276
7.375347
7.736075
8.792879
8.376600
7.554277
1.966005
1.648219
1.908921
2.238012
1.711916
1.293879
1.318017
3.397622
3.705012
1.344095
1.571739
1.495854
1.605466
1.580617
2.040941
1.559202
2.819198
2.310188
1.257910
1.231531
3.265844
2.904379
2.685708
2.005830
1.086913
1.316045
1.347814
0.743374
2.158287
2.462698
1.452551
2.012341
2.321360
2.262040
3.943625
3.389370
1.574306
1.858528
1.783740
1.623362
1.484169
1.432097
6.852563
7.730368
1.030401
0.943888
1.189050
1.216143
2.890813
2.966504
8.011224
7.135797
8.758657
7.678304
1.078647
1.871150
2.122777
2.710231
2.434314
1.475982
1.910150
2.230548
2.673826
2.692133
0.928525
0.782395
0.847050
0.813993
3.774485
2.030139
2.031387
0.901429
0.998642
2.031138
3.339251
4.981792
4.798393
2.414125
2.360197
6.143506
1.623446
6.330986
0.767029
0.664765
1.960674
4.628447
0.540702
1.872687
1.413832
3.123350
3.327280
3.509893
1.601162
1.326257
2.762340
3.178477
1.026572
2.092786
1.177321
2.000559
2.741626
4.432299
3.935133
1.026615
2.973828
1.075250
1.852241
3.143874
5.279454
3.196087
4.789768
3.445220
2.146282
5.268957
4.584886
2.942436
1.755448
1.453351
2.751906
2.014782
2.557152
2.872235
4.056147
3.003770
1.056409
2.174254
4.157416
2.002706
2.638225
1.891170
1.480134
0.249306
2.867505
1.011176
2.443387
3.480518
2.668749
2.900473
1.192119
1.158508
1.852655
1.205356
2.326174
1.074291
1.936353
5.958787
5.037773
1.249221
1.377894
1.321185
2.118122
1.188819
3.411273
3.320536
1.550552
0.706474
1.394862
1.041571
1.703479
0.901689
3.813232
1.289915
2.705781
1.302925
1.018210
3.031649
4.243984
0.940446
1.254337
2.543091
4.966745
4.118375
3.871762
4.835962
5.019511
3.180837
4.492352
5.487393
1.635731
1.219186
4.485702
3.639643
4.821966
4.362959
5.336279
2.724345
4.271218
3.462756
2.881068
2.439990
5.108505
2.877871
5.636448
2.576292
1.789917
3.856958
3.839137
1.400658
3.473605
5.273740
1.105252
0.979146
1.241086
6.686322
1.479663
5.381699
7.261874
1.337484
5.413557
1.091366
0.932819
6.068358
4.564625
0.948508
2.710267
3.161997
4.506985
1.899591
1.785502
5.773536
0.911690
6.209268
0.863691
5.739219
0.201941
7.212524
1.033831
6.329585
1.091389
1.975808
7.266819
0.761664
1.200743
6.354251
3.558694
4.774061
1.159777
3.144466
2.480431
2.028419
2.984420
2.146827
3.161372
3.099694
2.828485
3.145209
3.129697
1.883032
1.091356
1.612357
5.028820
3.974445
0.895771
5.510202
3.722554
3.896176
4.550406
1.319102
5.632699
3.696214
3.039016
6.405969
2.958760
4.714774
2.255366
1.979736
5.599602
3.530345
4.895175
3.798622
5.431800
2.564991
1.681774
1.842342
2.690496
2.572867
2.112637
3.097429
1.186231
1.722850
6.324343
6.040909
5.247086
2.873389
1.619473
5.097083
1.336180
3.190161
2.864626
5.946328
7.199639
4.623897
1.202398
1.180058
4.357556
4.482590
3.898155
2.552395
1.197091
6.966399
3.430893
2.843132
3.048230
2.364937
0.929644
3.277348
6.582332
3.307691
5.526705
5.010456
4.391977
4.455235
2.680649
3.151242
4.808275
2.416128
2.108661
1.649233
2.011037
4.416702
2.925957
4.106028
2.835438
1.717892
1.859417
5.102272
1.165001
3.108442
5.414433
7.293613
3.347925
5.315464
3.379681
1.418913
5.227105
1.688752
2.136228
7.365211
1.976859
3.159888
1.392998
1.719958
4.074906
6.770389
2.385022
3.052208
7.933859
3.240185
4.173244
4.062898
5.686843
4.159648
3.539257
1.650792
3.805983
2.351096
3.497348
0.953564
1.319730
6.607259
7.362655
3.311589
1.177398
4.589929
2.392305
3.166327
3.129770
2.842766
4.583597
6.890096
4.474160
4.002523
1.879789
1.433930
2.626911
4.710605
2.837907
3.974014
5.577746
2.582764
6.530592
4.543916
2.614329
3.220198
1.317818
2.317764
3.825186
5.554890
2.801282
2.600116
2.098032
2.413821
1.042001
1.587267
3.954739
4.452843
1.115518
4.977500
5.818196
2.538790
5.368813
6.794674
2.738715
3.097116
5.424770
3.323958
2.508711
3.253461
2.535799
1.324982
2.819309
2.277134
1.129738
1.630065
3.410974
4.895487
4.137361
6.557834
3.359089
4.760810
5.427016
7.438148
8.588129
1.202271
2.013762
2.692414
3.948685
2.748247
4.190652
1.203202
5.532720
1.543328
4.494374
6.599387
3.853342
2.855710
4.522118
5.662416
2.602176
2.648532
1.349529
1.046876
3.079827
5.475512
7.479697
3.147088
5.654217
3.126319
4.132979
4.474865
5.587467
6.988696
6.640604
3.208219
3.913749
1.118234
4.242783
2.519355
4.350857
3.389663
2.802757
6.662079
7.329935
2.635983
1.246467
1.218034
3.934512
3.645575
7.491526
2.769084
5.959176
3.905897
6.588938
6.320424
8.289099
2.304913
4.932293
7.904110
3.411208
7.682748
2.313720
3.329452
3.623330
4.574075
3.504532
5.741748
6.023616
2.587561
1.927335
1.632808
2.145445
2.678736
2.633366
5.094532
1.982345
3.240554
1.820636
3.242359
5.306587
1.418024
3.363113
3.482303
0.879134
1.431443
3.398184
1.722837
1.764502
5.887082
3.711072
4.983606
5.231556
4.246508
2.718117
6.333114
4.356740
6.037882
3.061361
6.088533
3.306333
3.415309
3.732085
2.510264
2.017895
7.711967
1.115032
1.485175
4.821513
2.302928
3.938372
2.281770
4.491880
1.593084
3.199069
2.562319
4.882789
5.407239
4.540470
1.885109
2.188806
2.061324
7.790268
6.763702
2.722922
2.552947
1.157364
6.458784
2.389357
2.595089
2.490669
0.973276
1.764747
1.388587
2.191933
1.115885
6.026013
3.513943
3.539257
5.429671
4.352016
2.794053
6.596953
3.748534
4.563900
2.698123
4.472003
3.296347
3.169010
3.925297
2.692004
4.780029
6.778932
3.950139
1.727388
1.828538
3.794844
4.107162
5.704793
2.189378
3.295049
3.125698
3.725656
2.861974
1.279504
5.845669
2.554390
4.182290
2.176850
6.561320
3.058558
2.878911
4.620720
1.949549
4.711839
0.849832
3.478114
4.276725
2.371896
6.024487
1.947863
1.296028
5.820589
3.137282
1.221904
1.744517
2.748433
4.226285
3.647263
1.354508
3.599127
5.573353
5.185383
7.143411
3.482096
7.915062
6.104010
5.728497
3.030535
2.186205
4.599515
4.312041
8.073614
3.868469
4.033688
4.152921
1.072675
2.927346
5.172488
2.529156
3.804904
3.692268
1.478427
1.291272
4.675359
1.621020
0.940520
3.242971
2.697881
1.674328
1.560770
0.503714
0.448165
1.674774
3.828229
4.331909
0.623801
2.610803
1.471181
1.449595
0.822031
1.602565
0.851856
3.508284
1.814827
2.947043
3.855759
2.276438
1.333028
1.431120
0.394421
0.584400
1.355240
0.647273
2.401645
4.817859
4.285263
1.301123
1.820021
1.248065
0.831640
1.023200
1.077792
0.985765
0.971402
0.797411
0.732233
0.768544
0.516941
1.316382
1.338294
1.206477
0.466368
0.918045
0.876067
1.804039
1.127256
1.076785
1.092646
0.692904
0.732547
0.444674
0.978360
0.528337
0.450518
0.148877
0.667167
3.151313
3.108874
3.933227
0.672923
2.042915
1.894142
2.307654
2.404828
2.306917
1.215209
1.368904
2.376997
3.500642
3.265101
4.504561
2.023780
2.309420
4.356762
0.987805
0.664242
0.826372
0.928478
0.297760
2.154002
2.256078
1.797034
2.428799
2.775457
3.629935
3.677279
3.655837
2.515964
3.133825
2.312758
3.477930
1.690505
2.665163
1.498462
1.072801
1.093088
2.337202
2.202212
1.504557
1.081467
0.672999
0.780589
1.752762
1.830390
3.256379
3.181448
3.595946
3.008427
3.693288
2.117861
2.281461
2.540757
2.954462
2.555448
1.683576
2.506496
2.615499
2.077302
1.213159
1.541866
3.528853
4.278129
0.812349
0.426419
0.380757
0.616946
0.885695
0.368028
1.004553
0.631817
0.907636
5.178602
2.633942
3.584864
5.452739
0.706193
1.335946
1.208389
1.154409
1.074163
0.823202
1.137849
0.797670
0.386539
4.357972
5.396572
2.759927
1.339935
1.922200
4.250711
1.451817
1.362321
1.780564
0.888183
0.812997
4.178111
2.172160
0.955519
1.543223
1.231617
0.984156
0.281257
1.226044
1.491456
1.047105
2.828851
2.249025
1.536390
2.246012
1.121188
4.878867
4.234057
2.979840
1.486514
0.799503
4.859801
2.085604
1.159622
3.779234
5.489615
0.641173
2.102191
1.589422
4.729798
0.857608
1.435094
0.653425
2.687692
4.047096
4.018075
1.117152
5.752885
4.696681
5.299914
6.453616
1.992723
1.062442
0.990169
0.956732
0.608322
1.120530
1.001629
1.156444
1.905295
1.075544
2.631268
4.282117
2.428051
4.425305
2.700292
2.486229
1.243192
3.875398
3.405620
2.391691
0.606126
1.401283
1.110460
1.726127
2.304754
2.981899
1.117293
2.482351
1.165580
2.735232
1.187201
0.662523
0.511120
1.859001
2.026233
2.147081
3.618421
2.538163
2.278703
1.406356
2.323296
0.584468
0.880917
1.562425
1.315091
1.400207
1.268950
0.786009
0.912714
0.923580
1.402591
1.939574
0.705829
0.366833
1.384357
2.018274
0.229828
0.773103
1.575206
0.914389
4.745363
2.562465
0.203195
4.505909
4.020585
1.983258
3.776492
3.287287
3.070361
3.120304
4.458700
4.073930
2.802693
4.856900
1.977743
4.258614
0.953117
5.015421
3.537380
3.157486
6.220566
4.375874
4.359608
6.998240
5.496734
1.036504
0.918693
0.908564
0.808790
0.870705
0.907202
1.025680
1.275524
1.377778
2.121578
3.188259
0.834723
2.911343
1.470482
1.153977
0.163751
4.320547
4.821396
3.636422
6.061834
5.753654
4.099788
6.429689
4.645789
3.344209
4.100572
3.878702
2.531901
1.966361
3.490911
3.323890
2.349659
4.033415
2.463540
1.662897
3.591682
0.771865
0.475209
1.204382
0.983585
1.109419
1.294984
1.615802
2.275517
1.935807
0.816181
2.329770
1.793353
0.724955
6.317813
0.654807
0.885466
1.191389
0.595384
1.039190
0.915657
1.304077
0.878295
1.750972
0.588058
1.873101
1.396021
1.028911
1.121425
0.741256
1.836363
0.950139
2.599686
2.198305
2.243611
5.216183
0.741813
1.016390
1.462257
1.151110
0.747871
1.294606
2.570124
2.018515
2.569569
1.805774
1.993301
0.540183
0.687642
0.984648
0.727132
2.177252
2.534782
2.411952
1.079984
0.905813
1.409342
0.818959
3.627349
2.101221
3.798249
2.799257
2.671802
2.372832
1.312806
1.129298
1.078135
1.290254
1.330574
1.617161
1.202156
3.065966
2.744046
2.328335
3.407721
4.560273
1.684368
1.856139
1.401618
2.263094
1.741208
3.823907
2.922028
3.870599
2.076205
3.789795
2.648280
3.693195
2.522597
2.848395
2.193249
2.209867
3.203349
1.676460
2.613688
2.029030
2.155849
1.429014
1.498865
2.056503
2.808098
2.193446
2.362257
2.385354
3.911956
1.804405
1.931459
2.117676
1.433179
2.109777
1.446610
1.056111
2.963915
1.181660
1.206432
1.960770
1.718913
3.261926
1.230971
1.896746
2.636122
1.231135
2.654024
4.298295
0.997343
1.147411
0.807367
0.080643
2.189620
1.466457
4.813606
5.328916
4.054657
3.338058
1.964638
2.168053
1.198001
2.376832
0.866334
5.288513
2.912138
2.322794
4.079472
1.301219
1.121138
1.075786
0.931877
2.118904
1.541206
5.312148
2.018234
3.001713
3.244226
4.026094
0.932026
1.447593
1.112566
3.185217
3.101312
2.763129
2.066048
2.397968
1.503305
1.880350
1.341886
1.640324
1.103492
1.100680
3.212641
4.104063
3.530962
2.107838
2.788614
3.232956
2.639707
1.816689
2.023225
1.907488
1.992770
1.307043
2.912894
1.436100
3.468678
4.148869
4.643974
4.274076
4.783737
2.100282
0.843675
2.476049
1.854644
1.329862
3.929776
4.160651
5.071894
3.087569
3.906670
3.920671
2.286663
2.639633
0.851714
0.754961
0.659447
1.031711
0.730729
0.611949
2.523129
2.532103
2.174929
1.959069
2.970114
2.297780
2.300484
2.352623
2.207931
2.337391
3.119327
3.932450
2.478847
1.688206
1.128765
1.440239
1.536174
1.196685
1.039783
1.260589
1.856338
4.699464
2.448351
1.042939
1.054641
0.944474
5.867553
2.661220
1.515688
2.501756
2.717783
2.579605
2.014145
1.764161
3.026401
2.227142
3.640554
3.062310
1.872844
2.248889
2.630024
2.991452
2.692872
3.221252
4.210039
2.555195
4.687256
4.062331
5.135198
5.098268
1.586952
1.249761
4.069411
5.427489
4.514533
5.986159
5.546003
3.671164
2.692281
3.032422
1.190688
1.318287
1.282642
1.296428
1.439388
1.205309
1.228321
1.034751
4.566134
4.834862
4.719940
1.893447
4.509133
3.897940
4.365270
1.952862
1.774740
1.459824
3.580313
1.470383
1.090170
2.309548
1.487342
1.300666
3.621287
3.748917
2.598228
2.092003
1.568771
1.021925
2.115427
1.691931
6.413568
6.242602
2.031261
1.504638
3.425318
4.022486
3.477055
3.617571
2.888567
1.758914
3.717155
3.193227
2.356464
0.877698
0.950996
0.685114
2.891811
2.925257
1.083120
2.284303
1.601112
2.762630
3.567406
3.356318
1.750987
1.827042
3.541830
3.873995
2.970710
3.352375
4.387361
4.648910
3.930263
4.298454
1.703128
1.880032
1.971725
1.958991
0.921313
2.344241
2.092292
1.620527
4.393178
3.755409
2.761713
5.012394
4.972614
1.810401
1.378727
2.023503
1.929486
1.345400
1.139180
1.079646
2.540528
0.749689
2.742916
1.818759
1.544850
2.470386
2.103256
1.602875
1.680167
0.924563
0.869210
1.449569
3.299078
2.752552
5.116369
0.701547
2.711549
1.981788
2.100456
3.229258
0.830402
0.865403
0.936816
1.525121
1.388380
1.646211
1.238881
0.906101
1.215220
1.036539
1.727749
1.474746
1.974351
3.020570
3.189300
5.470481
4.813788
3.494220
1.541401
5.940553
5.319562
4.477357
1.326886
2.227067
1.549718
2.305843
1.960600
6.053682
5.037549
2.342376
1.924670
4.382028
2.497880
1.931571
2.030724
1.601577
1.148181
4.985051
5.219231
3.745851
1.744404
1.033924
1.205353
0.868436
0.660875
1.701248
1.309394
2.274591
1.174786
1.170049
3.097217
2.616129
3.382128
1.440465
1.904492
2.081950
2.301675
2.214160
2.334222
3.639798
3.695216
1.948327
3.342452
3.106512
0.438666
0.244069
0.692894
0.565907
0.278261
0.304406
0.231335
0.651225
0.064019
0.607626
1.473522
1.342334
2.065559
0.449011
1.149716
0.350946
0.749163
0.968504
0.957459
1.958892
1.880242
1.600941
1.337205
1.041562
0.611652
0.972382
0.696973
0.979200
0.871575
0.499554
0.257188
0.327406
0.336653
1.002885
0.727274
1.478974
0.855534
1.847114
1.795491
0.513870
0.183322
0.631636
0.337500
0.428984
0.343871
0.295921
1.068783
0.584262
1.682713
2.389005
1.714213
2.139583
1.818602
1.406700
2.067801
0.411134
0.608413
0.632935
0.812368
0.408760
0.825152
0.792160
1.308776
0.751379
1.457145
0.573603
0.813630
2.294002
2.071790
0.819946
0.915997
0.997223
0.598368
2.463994
1.951798
0.918343
1.232821
2.330232
1.675699
2.015623
1.862758
0.454693
1.083343
2.068200
1.118967
2.150346
1.389028
2.764015
2.427062
0.202309
0.389976
2.868718
2.228566
