# vtk DataFile Version 2.0
Unstructured Grid Example
ASCII
DATASET UNSTRUCTURED_GRID
POINTS 749 float
-0.006262 0.000074 0.019734 
0.494095 0.002376 -0.019010 
0.209559 0.696924 -0.013825 
0.697717 0.703140 0.013992 
0.112491 0.696784 -0.029874 
0.115084 0.998096 -0.041836 
1.612570 0.995033 0.019967 
1.613847 0.695675 0.037532 
0.909478 0.501866 -0.009677 
0.993774 0.700876 -0.011696 
0.642470 0.504370 0.003499 
0.657004 0.554576 0.006069 
0.894664 0.552025 -0.007579 
1.044559 0.700858 -0.015017 
0.006231 0.000159 0.199541 
0.505873 -0.002272 0.160979 
0.190616 0.703243 0.166201 
0.702148 0.696819 0.193985 
0.087909 0.703160 0.150058 
0.085100 1.001880 0.138248 
1.586231 1.005898 0.199879 
1.586247 0.704978 0.217498 
0.920764 0.497239 0.170311 
1.005951 0.698703 0.168452 
0.643588 0.495671 0.183280 
0.657691 0.545539 0.185990 
0.905573 0.547086 0.172447 
1.055134 0.698773 0.164908 
1.592986 0.852922 0.164203 
1.606564 0.847846 0.074273 
1.599683 0.895471 0.116305 
1.599792 0.805351 0.121840 
0.294206 0.850330 0.129671 
0.306073 0.849836 0.039650 
0.300222 0.894886 0.084601 
0.300200 0.804976 0.085524 
0.118692 0.000243 0.010696 
0.243723 0.000890 0.000469 
0.368774 0.001631 -0.009723 
0.019020 0.087522 0.017631 
0.044348 0.174935 0.015228 
0.069491 0.262208 0.012728 
0.095182 0.349382 0.009765 
0.122300 0.436123 0.004838 
0.150605 0.522915 -0.001060 
0.178821 0.609446 -0.007569 
0.162255 0.696567 -0.022477 
0.114368 0.847373 -0.037446 
0.221695 0.998821 -0.022666 
0.327195 1.000928 -0.002706 
0.430627 1.002968 0.014774 
0.533185 1.004333 0.025250 
0.635165 1.004264 0.027865 
0.737020 1.003723 0.022046 
0.841304 1.002056 0.009447 
0.948484 0.999752 -0.005934 
1.058666 0.997671 -0.018963 
1.171936 0.996501 -0.024121 
1.283844 0.995249 -0.021692 
1.395590 0.994500 -0.011834 
1.504982 0.994628 0.003389 
1.613593 0.845263 0.029357 
0.842714 0.701413 0.003270 
0.618292 0.421304 -0.002340 
0.592847 0.337649 -0.008459 
0.567951 0.253897 -0.013149 
0.542777 0.169734 -0.016222 
0.518208 0.085960 -0.018204 
0.774733 0.502773 -0.000957 
0.976861 0.601333 -0.012230 
0.944388 0.626375 -0.009767 
0.774624 0.552996 0.000827 
0.679435 0.629007 0.011162 
1.141313 0.699560 -0.017696 
1.237710 0.698583 -0.014077 
1.333662 0.697477 -0.005928 
1.428429 0.696587 0.007524 
1.521714 0.695856 0.022625 
0.131173 0.000035 0.190692 
0.256340 -0.000654 0.180671 
0.381066 -0.001425 0.170301 
0.031021 0.087735 0.197718 
0.055804 0.175317 0.195246 
0.080539 0.263079 0.192772 
0.105012 0.350982 0.189825 
0.128349 0.439165 0.185004 
0.149625 0.527444 0.179121 
0.171466 0.615809 0.172373 
0.138230 0.703545 0.157782 
0.085846 0.852531 0.142503 
0.192730 1.001067 0.157391 
0.301521 0.999123 0.177431 
0.412515 0.997144 0.194593 
0.524095 0.995769 0.205559 
0.636366 0.995745 0.208016 
0.748666 0.996172 0.202052 
0.858584 0.997816 0.189471 
0.965567 0.999986 0.174113 
1.069516 1.001994 0.161099 
1.170437 1.003235 0.155694 
1.272767 1.004540 0.158287 
1.375231 1.005114 0.168373 
1.479671 1.005543 0.183469 
1.586043 0.855520 0.209255 
0.857115 0.698337 0.183367 
0.620178 0.412006 0.177678 
0.597642 0.328851 0.171670 
0.575246 0.246219 0.166764 
0.552532 0.163583 0.163819 
0.529320 0.080840 0.161808 
0.783159 0.496767 0.179107 
0.988229 0.598037 0.167718 
0.955604 0.622868 0.170213 
0.782834 0.546536 0.180918 
0.678260 0.621020 0.190990 
1.141693 0.700229 0.162435 
1.228774 0.701020 0.165656 
1.316101 0.702248 0.174315 
1.404756 0.703434 0.187384 
1.494928 0.704571 0.202591 
0.000135 0.000139 0.109648 
0.500017 0.000037 0.071007 
0.200243 0.700081 0.076702 
0.700185 0.700055 0.104988 
0.100437 0.699837 0.059894 
0.100000 0.999931 0.048405 
1.599255 1.000517 0.109845 
1.599987 0.700363 0.127391 
0.915102 0.499600 0.080393 
0.999920 0.699803 0.078217 
0.642932 0.500000 0.093531 
0.657288 0.549965 0.096376 
0.900133 0.549604 0.082626 
1.049940 0.699683 0.074592 
1.595077 0.820235 0.152851 
1.604480 0.816862 0.089298 
1.604391 0.880440 0.085348 
1.594975 0.884074 0.148937 
0.304429 0.881773 0.052761 
0.303974 0.818104 0.053270 
0.296257 0.818524 0.116837 
0.295815 0.881968 0.116416 
1.500651 0.852571 0.149579 
1.408521 0.852213 0.135183 
1.317358 0.851838 0.123171 
1.226544 0.851331 0.116422 
1.135828 0.850678 0.115043 
1.044817 0.850085 0.120205 
0.953481 0.849463 0.129712 
0.860626 0.849015 0.140577 
0.766885 0.848700 0.150254 
0.672715 0.848293 0.156225 
0.577724 0.848036 0.156680 
0.482799 0.848565 0.152133 
0.388439 0.849309 0.142388 
1.506822 0.895162 0.101923 
1.414031 0.894892 0.087437 
1.321142 0.894868 0.075946 
1.228254 0.894794 0.069359 
1.135434 0.894818 0.068899 
1.042647 0.894838 0.074449 
0.949849 0.894861 0.084735 
0.857069 0.894892 0.096584 
0.764260 0.894952 0.106985 
0.671368 0.894996 0.113070 
0.578536 0.895091 0.114205 
0.485821 0.895102 0.108860 
0.392762 0.895128 0.098356 
1.513147 0.847767 0.059537 
1.419626 0.847699 0.045155 
1.324989 0.847975 0.033247 
1.230347 0.848327 0.026435 
1.135173 0.848892 0.025037 
1.040471 0.849605 0.030184 
0.946222 0.850193 0.039761 
0.853542 0.850678 0.050633 
0.761761 0.851237 0.060154 
0.670258 0.851832 0.066194 
0.579674 0.851839 0.067146 
0.488499 0.851540 0.062132 
0.397579 0.850743 0.052502 
1.506914 0.805245 0.107009 
1.414201 0.804873 0.092038 
1.321311 0.804931 0.079697 
1.228139 0.804857 0.072236 
1.135856 0.804748 0.070437 
1.042661 0.804766 0.075279 
0.949846 0.804820 0.084084 
0.857020 0.804851 0.094829 
0.764232 0.804874 0.103698 
0.671395 0.804993 0.109406 
0.578559 0.804885 0.110095 
0.485911 0.804982 0.105681 
0.392907 0.805049 0.096566 
1.593560 0.954698 0.153174 
1.593787 0.750638 0.165201 
1.606090 0.746431 0.084594 
1.605253 0.949415 0.073388 
1.610524 0.781113 0.052974 
1.589254 0.788614 0.192842 
1.610160 0.910694 0.044419 
1.589306 0.919981 0.185069 
1.608493 0.816256 0.063630 
1.591108 0.822576 0.178487 
1.608471 0.877342 0.058880 
1.591125 0.884659 0.174709 
1.595015 0.914760 0.146388 
1.595084 0.789421 0.154021 
1.604603 0.786100 0.091537 
1.604643 0.910003 0.081467 
1.599910 0.759556 0.124296 
1.599635 0.940310 0.112862 
0.341425 0.832751 0.118756 
1.551366 0.834467 0.141003 
0.718887 0.826791 0.130162 
0.812081 0.826714 0.122576 
0.905157 0.827117 0.112367 
0.624997 0.826563 0.133551 
1.181446 0.827927 0.093301 
0.437549 0.826931 0.124229 
0.997472 0.827252 0.102106 
0.531166 0.826664 0.131509 
1.089490 0.827596 0.094971 
1.273533 0.828139 0.097639 
1.365299 0.828555 0.107348 
1.457546 0.828649 0.120979 
0.332300 0.817200 0.101646 
1.564621 0.818057 0.128027 
0.341062 0.867220 0.118850 
1.551361 0.869113 0.138871 
0.812153 0.871777 0.123651 
0.718632 0.871563 0.131579 
0.905468 0.872087 0.112942 
0.624917 0.871499 0.135402 
0.997592 0.872508 0.102097 
0.531125 0.871613 0.133536 
0.437567 0.871839 0.125431 
1.181499 0.873133 0.092096 
1.089548 0.872779 0.094478 
1.273281 0.873113 0.095394 
1.365425 0.873556 0.105303 
1.457613 0.873793 0.118544 
0.331959 0.882873 0.101681 
1.564594 0.883924 0.124004 
0.300099 0.850006 0.084764 
0.299171 0.832346 0.092126 
0.302407 0.842566 0.066788 
0.297632 0.857147 0.102594 
0.301106 0.867929 0.077790 
1.559271 0.831570 0.085494 
0.346533 0.822220 0.073750 
0.717320 0.828417 0.084966 
0.809194 0.828024 0.077536 
0.901739 0.827545 0.067213 
0.625017 0.828566 0.088830 
1.088761 0.826894 0.050012 
0.533209 0.828296 0.086598 
0.995052 0.827398 0.057169 
1.182652 0.826751 0.048218 
0.441269 0.828116 0.079568 
1.276229 0.826664 0.052858 
1.370039 0.826353 0.062416 
1.463437 0.826479 0.075933 
1.568173 0.816797 0.103738 
0.337353 0.837870 0.056497 
0.347891 0.867380 0.063323 
1.557873 0.877064 0.093202 
0.717050 0.873388 0.086593 
0.809200 0.873063 0.078648 
0.901442 0.872662 0.067927 
0.624825 0.873523 0.090429 
1.182270 0.871517 0.047167 
0.994882 0.872193 0.057099 
1.088575 0.871846 0.049471 
0.533149 0.873448 0.088570 
0.441281 0.873187 0.080721 
1.276150 0.871482 0.050756 
1.369749 0.871260 0.060289 
1.463338 0.871268 0.073521 
0.334874 0.882933 0.077386 
1.571222 0.860583 0.080307 
0.422769 0.596894 0.004747 
0.343657 0.363440 -0.000918 
0.390531 0.794105 0.004743 
0.532098 0.720049 0.014037 
0.540836 0.560254 0.006258 
1.030053 0.848337 -0.013756 
0.330308 0.680139 -0.001539 
0.439111 0.474836 0.000977 
0.295310 0.493918 0.000519 
0.241971 0.189764 0.001947 
0.619110 0.839420 0.020634 
0.277123 0.773053 -0.009190 
0.436676 0.700533 0.007691 
1.175581 0.844742 -0.019798 
0.398301 0.210587 -0.007256 
1.376624 0.842548 -0.005999 
0.514756 0.842068 0.017793 
0.498956 0.639110 0.009481 
0.475505 0.345632 -0.005355 
0.593445 0.639064 0.011415 
0.318471 0.587344 0.000033 
0.230068 0.360518 0.002940 
0.763003 0.835074 0.013953 
0.546625 0.463077 0.000749 
1.096993 0.795286 -0.017414 
0.719121 0.531308 0.002361 
0.894228 0.906945 0.000826 
0.929004 0.780521 -0.004384 
0.830844 0.530230 -0.003719 
0.331396 0.887435 -0.002635 
0.268763 0.636201 -0.004655 
0.465472 0.531552 0.003566 
0.375293 0.512074 0.000950 
0.409400 0.888079 0.008514 
0.596355 0.544788 0.005797 
1.015507 0.769318 -0.012664 
0.627527 0.750593 0.016689 
0.985482 0.650443 -0.011982 
0.168767 0.106859 0.007252 
0.202346 0.795125 -0.020987 
1.282625 0.788379 -0.013441 
1.479134 0.787995 0.011164 
0.173111 0.282362 0.006492 
0.338537 0.116443 -0.005662 
0.389802 0.649117 0.003851 
0.932232 0.573367 -0.009809 
0.210658 0.448213 0.001373 
0.483295 0.760781 0.012796 
0.274255 0.706149 -0.007649 
0.362566 0.441161 -0.000072 
0.214004 0.894042 -0.022462 
0.285332 0.292188 0.000115 
1.098281 0.909845 -0.019458 
1.275972 0.888272 -0.017437 
0.264330 0.561447 -0.001575 
1.470802 0.899084 0.003974 
0.574444 0.912436 0.023602 
0.453314 0.150468 -0.012157 
0.381670 0.721800 0.003145 
0.480069 0.251304 -0.009880 
0.434191 0.069135 -0.013350 
0.288781 0.413665 0.000715 
0.688271 0.907327 0.022120 
0.620182 0.592115 0.008595 
0.591060 0.490668 0.002417 
0.539213 0.387069 -0.004156 
0.558136 0.783847 0.017940 
0.483385 0.581681 0.006307 
0.692909 0.794893 0.017344 
0.419052 0.391557 -0.002166 
[...]
POINT_DATA 749
SCALARS u float 1
LOOKUP_TABLE default
0.045522
0.044078
0.037570
0.031926
0.071544
0.097870
0.053013
0.088471
0.024837
0.029196
0.012338
0.016716
0.020861
0.035168
0.045098
0.044054
0.037376
0.031887
0.071337
0.097557
0.054726
0.088495
0.025521
0.028706
0.012049
0.016465
0.021610
0.035154
0.066346
0.066130
0.057850
0.070011
0.017324
0.017799
0.011884
0.009851
0.027308
0.013977
0.025638
0.040935
0.035713
0.030500
0.023979
0.012552
0.005313
0.019814
0.056792
0.088374
0.059279
0.029071
0.038818
0.057235
0.061992
0.050806
0.028590
0.023087
0.043787
0.053602
0.050182
0.035982
0.030095
0.071888
0.017832
0.011542
0.021532
0.031108
0.037827
0.042273
0.011255
0.029756
0.024951
0.011046
0.026144
0.038927
0.032562
0.023736
0.031603
0.058508
0.027145
0.014091
0.025347
0.041148
0.035875
0.030635
0.024347
0.013736
0.005771
0.019862
0.055829
0.088298
0.058998
0.028692
0.038119
0.057804
0.062321
0.050841
0.028511
0.022597
0.043341
0.053957
0.050416
0.036211
0.032362
0.072294
0.017690
0.011716
0.021460
0.031409
0.037794
0.042152
0.011870
0.030109
0.025235
0.012244
0.025709
0.038622
0.033170
0.023737
0.031724
0.058625
0.043202
0.041759
0.029244
0.032956
0.066202
0.091456
0.043679
0.082215
0.021143
0.025911
0.007765
0.014024
0.016238
0.033884
0.069228
0.069184
0.060584
0.060839
0.015389
0.013889
0.013723
0.015033
0.035542
0.013583
0.027801
0.041195
0.043905
0.032814
0.013969
0.014619
0.034143
0.046904
0.047900
0.038342
0.018987
0.026228
0.005669
0.030907
0.045390
0.046401
0.034196
0.011584
0.014479
0.037346
0.050724
0.053220
0.041468
0.018375
0.034929
0.012789
0.027365
0.041170
0.043977
0.033006
0.014208
0.014775
0.033888
0.046843
0.048921
0.038312
0.019559
0.037405
0.004495
0.022654
0.039070
0.043017
0.032373
0.013018
0.010627
0.030120
0.042669
0.044184
0.034481
0.014438
0.052598
0.078095
0.078012
0.051849
0.076401
0.076577
0.060444
0.060788
0.071172
0.071343
0.063310
0.063478
0.056716
0.072966
0.072881
0.056763
0.075410
0.051917
0.006955
0.052095
0.038930
0.022423
0.003598
0.046330
0.042252
0.026100
0.022976
0.041891
0.038545
0.032863
0.012858
0.020061
0.002532
0.057163
0.007776
0.047531
0.024772
0.042034
0.004376
0.050402
0.023016
0.046346
0.028718
0.044907
0.039634
0.037825
0.016865
0.015204
0.003198
0.048372
0.011844
0.011703
0.012929
0.013172
0.012296
0.051813
0.005133
0.038474
0.022347
0.004080
0.046956
0.038490
0.042093
0.022918
0.042442
0.026923
0.032360
0.012423
0.019613
0.056966
0.008921
0.007987
0.045275
0.042062
0.024767
0.004789
0.050466
0.044758
0.023131
0.039698
0.046426
0.029438
0.036970
0.016616
0.014692
0.003534
0.052059
0.013062
0.006730
0.022423
0.032348
0.016626
0.033041
0.017444
0.006036
0.002292
0.013319
0.046033
0.032055
0.021124
0.043924
0.019546
0.027158
0.041077
0.022837
0.015109
0.026609
0.008331
0.010712
0.033643
0.009823
0.038734
0.010961
0.019892
0.019089
0.014484
0.027762
0.017070
0.010733
0.004118
0.029528
0.015948
0.030460
0.037430
0.029240
0.020452
0.054667
0.033080
0.038513
0.018412
0.017825
0.014141
0.025014
0.005347
0.031162
0.026549
0.003430
0.058827
0.010316
0.043645
0.040717
0.008828
0.029634
0.052793
0.029563
0.017263
0.024371
0.032445
0.003880
0.049791
0.021285
0.011078
0.013737
0.040514
0.016162
0.039544
0.008229
0.024794
0.013277
0.018339
0.067161
0.031810
0.012858
0.028593
0.039903
0.040091
0.024425
0.032893
0.022101
0.010339
0.044425
0.019655
0.019469
0.026346
0.033768
0.008745
0.043380
0.020187
0.028556
0.027603
0.022055
0.008386
0.064481
0.013318
0.012761
0.030774
0.021494
0.031368
0.011819
0.017880
0.011346
0.049217
0.024150
0.038316
0.009191
0.021811
0.026725
0.015142
0.032842
0.038358
0.023796
0.007134
0.037992
0.040384
0.005118
0.030538
0.051718
0.004742
0.076444
0.046540
0.012810
0.007089
0.021718
0.032283
0.016443
0.032934
0.015572
0.005898
0.001808
0.013713
0.045986
0.031671
0.021499
0.043946
0.020305
0.027993
0.040574
0.022339
0.014742
0.026604
0.007963
0.010930
0.034064
0.009519
0.038671
0.011495
0.019463
0.018757
0.015393
0.027272
0.016818
0.010662
0.004316
0.028483
0.016008
0.030305
0.037984
0.029373
0.020699
0.055014
0.033769
0.039187
0.017957
0.017800
0.013738
0.025495
0.006688
0.030345
0.025771
0.003750
0.059246
0.011041
0.043344
0.040540
0.008841
0.030780
0.052850
0.029954
0.017177
0.024528
0.032344
0.004139
0.049691
0.021360
0.011037
0.013558
0.039851
0.015611
0.038678
0.008474
0.025001
0.014179
0.018197
0.066167
0.031672
0.012975
0.027833
0.039441
0.039640
0.025000
0.032906
0.021725
0.010131
0.045604
0.019450
0.019737
0.026007
0.034642
0.008417
0.043884
0.020328
0.029259
0.027691
0.021803
0.008284
0.064803
0.013565
0.012370
0.030676
0.021192
0.031486
0.011147
0.018661
0.011710
0.049782
0.023922
0.038300
0.009345
0.021376
0.026007
0.015752
0.033021
0.038204
0.023748
0.007553
0.037378
0.039913
0.006402
0.030657
0.051819
0.004449
0.076521
0.045625
0.025103
0.038786
0.010633
0.033174
0.040898
0.003382
0.003417
0.041059
0.003144
0.011558
0.011176
0.028513
0.024510
0.024397
0.020338
0.023984
0.024073
0.022312
0.022518
0.011466
0.011084
0.007378
0.025489
0.028527
0.021605
0.002512
0.009762
0.009771
0.038996
0.000564
0.035555
0.025082
0.039659
0.062448
0.063771
0.039423
0.026024
0.016140
0.047367
0.063043
0.059035
0.037165
0.003964
0.029749
0.053226
0.055077
0.040154
0.011956
0.019386
0.063448
0.075175
0.030688
0.011934
0.009066
0.029419
0.030596
0.035726
0.025088
0.010291
0.018224
0.030825
0.003578
0.022069
0.040552
0.041055
0.023353
0.044955
0.058201
0.046419
0.058697
0.088739
0.088522
0.074879
0.074792
0.082184
0.040270
0.007194
0.007113
0.014240
0.004270
0.009006
0.009272
0.008753
0.019463
0.014290
0.019002
0.010554
0.009580
0.002921
0.002088
0.003708
0.003356
0.008792
0.011257
0.004691
0.008074
0.022815
0.011748
0.006502
0.001383
0.026324
0.019766
0.032394
0.038231
0.037456
0.032192
0.032767
0.034364
0.028484
0.027642
0.022623
0.022126
0.010493
0.002102
0.018250
0.005423
0.004027
0.002143
0.002747
0.001540
0.057348
0.049669
0.049376
0.037934
0.033468
0.010727
0.031275
0.031019
0.022532
0.016047
0.004945
0.004853
0.012341
0.011962
0.001939
0.005084
0.002075
0.003801
0.004717
0.004796
0.001288
0.016655
0.026535
0.018603
0.040407
0.006163
0.005674
0.038742
0.001791
0.013911
0.016756
0.062763
0.056651
0.020174
0.038501
0.038998
0.025764
0.029734
0.018653
0.029953
0.008530
0.004824
0.002460
0.037006
0.004130
0.039457
0.013983
0.010188
0.061960
0.020826
0.022893
0.032645
0.052907
0.028854
0.008766
0.012012
0.055048
0.027967
0.017677
0.030499
0.018879
0.008027
0.017706
0.025968
0.014058
0.005616
0.031499
0.032519
0.029493
0.027341
0.027955
0.028926
0.029991
0.031023
0.017983
0.030981
0.041899
0.053554
0.029024
0.017815
0.019603
0.039625
0.051654
0.063836
0.054301
0.048716
0.054536
0.041563
0.037239
0.043178
0.039184
0.023614
0.030386
0.025526
0.032331
0.034139
0.011710
0.011256
0.019152
0.013483
0.005647
0.063085
