# vtk DataFile Version 2.0
Unstructured Grid Example
ASCII
DATASET UNSTRUCTURED_GRID
POINTS 749 float
0.006262 -0.000074 -0.019734 
0.505905 -0.002376 0.019010 
0.190441 0.703076 0.013825 
0.702283 0.696860 -0.013992 
0.087509 0.703216 0.029874 
0.084916 1.001904 0.041836 
1.587430 1.004967 -0.019967 
1.586153 0.704325 -0.037532 
0.920522 0.498134 0.009677 
1.006226 0.699124 0.011696 
0.643244 0.495630 -0.003499 
0.657282 0.545424 -0.006069 
0.905336 0.547975 0.007579 
1.055441 0.699142 0.015017 
-0.006231 -0.000159 0.160459 
0.494127 0.002272 0.199021 
0.209384 0.696757 0.193799 
0.697852 0.703181 0.166015 
0.112091 0.696840 0.209942 
0.114900 0.998120 0.221752 
1.613769 0.994102 0.160121 
1.613753 0.695022 0.142502 
0.909236 0.502761 0.189689 
0.994049 0.701297 0.191548 
0.642126 0.504329 0.176720 
0.656594 0.554461 0.174010 
0.894427 0.552914 0.187553 
1.044866 0.701227 0.195092 
1.607014 0.847078 0.105797 
1.593436 0.852154 0.015727 
1.600317 0.894529 0.063695 
1.600208 0.804649 0.058160 
0.305794 0.849670 0.140329 
0.293927 0.850164 0.050350 
0.299778 0.895114 0.095399 
0.299800 0.805024 0.094476 
0.131308 -0.000243 -0.010696 
0.256277 -0.000890 -0.000469 
0.381226 -0.001631 0.009723 
0.030980 0.087478 -0.017631 
0.055652 0.175065 -0.015228 
0.080509 0.262792 -0.012728 
0.104818 0.350618 -0.009765 
0.127700 0.438877 -0.004838 
0.149395 0.527085 0.001060 
0.171179 0.615554 0.007569 
0.137745 0.703433 0.022477 
0.085632 0.852627 0.037446 
0.192591 1.001179 0.022666 
0.301377 0.999072 0.002706 
0.412230 0.997032 -0.014774 
0.523958 0.995667 -0.025250 
0.636264 0.995736 -0.027865 
0.748694 0.996277 -0.022046 
0.858696 0.997944 -0.009447 
0.965802 1.000248 0.005934 
1.069906 1.002329 0.018963 
1.170922 1.003499 0.024121 
1.273298 1.004751 0.021692 
1.375839 1.005500 0.011834 
1.480732 1.005372 -0.003389 
1.586407 0.854737 -0.029357 
0.857286 0.698587 -0.003270 
0.619804 0.412029 0.002340 
0.597629 0.329017 0.008459 
0.574906 0.246103 0.013149 
0.552461 0.163600 0.016222 
0.529411 0.080707 0.018204 
0.783124 0.497227 0.000957 
0.988139 0.598667 0.012230 
0.955612 0.623625 0.009767 
0.782519 0.547004 -0.000827 
0.677708 0.620993 -0.011162 
1.142020 0.700440 0.017696 
1.228957 0.701417 0.014077 
1.316338 0.702523 0.005928 
1.404905 0.703413 -0.007524 
1.494953 0.704144 -0.022625 
0.118827 -0.000035 0.169308 
0.243660 0.000654 0.179329 
0.368934 0.001425 0.189699 
0.018979 0.087265 0.162282 
0.044196 0.174683 0.164754 
0.069461 0.261921 0.167228 
0.094988 0.349018 0.170175 
0.121651 0.435835 0.174996 
0.150375 0.522556 0.180879 
0.178534 0.609191 0.187627 
0.161770 0.696455 0.202218 
0.114154 0.847469 0.217497 
0.221556 0.998933 0.202609 
0.327050 1.000877 0.182569 
0.430342 1.002856 0.165407 
0.533048 1.004231 0.154441 
0.635063 1.004255 0.151984 
0.737048 1.003828 0.157948 
0.841416 1.002184 0.170529 
0.948719 1.000014 0.185887 
1.059056 0.998006 0.198901 
1.172420 0.996765 0.204306 
1.284376 0.995460 0.201713 
1.396197 0.994886 0.191627 
1.506043 0.994457 0.176531 
1.613957 0.844480 0.150745 
0.842885 0.701663 0.176633 
0.617917 0.421327 0.182322 
0.592834 0.337815 0.188330 
0.567611 0.253781 0.193236 
0.542707 0.169750 0.196181 
0.518299 0.085826 0.198192 
0.774698 0.503233 0.180893 
0.976771 0.601963 0.192282 
0.944396 0.627132 0.189787 
0.774309 0.553464 0.179082 
0.678883 0.628980 0.169010 
1.141641 0.699771 0.197565 
1.237893 0.698980 0.194344 
1.333899 0.697752 0.185685 
1.428578 0.696566 0.172616 
1.521739 0.695429 0.157409 
-0.000135 -0.000139 0.070352 
0.499983 -0.000037 0.108993 
0.199757 0.699919 0.103298 
0.699815 0.699945 0.075012 
0.099563 0.700163 0.120106 
0.100000 1.000069 0.131595 
1.600745 0.999483 0.070155 
1.600013 0.699637 0.052609 
0.914898 0.500400 0.099607 
1.000080 0.700197 0.101783 
0.642782 0.500000 0.086469 
0.656998 0.550035 0.083624 
0.899867 0.550396 0.097374 
1.050060 0.700317 0.105408 
1.604923 0.816125 0.090789 
1.595520 0.819499 0.027063 
1.595609 0.883200 0.031013 
1.605025 0.879566 0.094703 
0.295571 0.881867 0.063600 
0.296026 0.818257 0.063090 
0.303743 0.817837 0.126803 
0.304185 0.881672 0.127224 
1.513635 0.847429 0.120421 
1.420051 0.847787 0.134817 
1.325499 0.848162 0.146829 
1.230599 0.848669 0.153578 
1.135601 0.849322 0.154957 
1.040897 0.849915 0.149795 
0.946519 0.850537 0.140288 
0.853659 0.850985 0.129423 
0.761686 0.851300 0.119746 
0.670143 0.851707 0.113775 
0.579419 0.851964 0.113320 
0.488629 0.851435 0.117867 
0.397275 0.850691 0.127612 
1.507464 0.894838 0.078077 
1.414540 0.895108 0.092563 
1.321715 0.895132 0.104054 
1.228889 0.895206 0.110641 
1.135994 0.895182 0.111101 
1.043067 0.895162 0.105551 
0.950151 0.895139 0.095265 
0.857216 0.895108 0.083416 
0.764311 0.895048 0.073015 
0.671489 0.895004 0.066930 
0.578607 0.894909 0.065795 
0.485608 0.894898 0.071140 
0.392953 0.894872 0.081644 
1.501139 0.852233 0.030463 
1.408946 0.852301 0.044845 
1.317868 0.852025 0.056753 
1.226796 0.851673 0.063565 
1.136255 0.851108 0.064963 
1.045243 0.850395 0.059816 
0.953778 0.849807 0.050239 
0.860744 0.849322 0.039367 
0.766810 0.848763 0.029846 
0.672599 0.848168 0.023806 
0.577469 0.848161 0.022854 
0.482929 0.848460 0.027868 
0.388135 0.849257 0.037498 
1.507371 0.804755 0.072991 
1.414371 0.805127 0.087962 
1.321546 0.805069 0.100303 
1.229004 0.805143 0.107764 
1.135572 0.805252 0.109563 
1.043053 0.805234 0.104721 
0.950154 0.805180 0.095916 
0.857266 0.805149 0.085171 
0.764339 0.805126 0.076302 
0.671463 0.805007 0.070594 
0.578584 0.805115 0.069905 
0.485517 0.805018 0.074319 
0.392807 0.804951 0.083434 
1.606440 0.948935 0.107458 
1.606213 0.745729 0.095431 
1.593910 0.749936 0.014773 
1.594747 0.953106 0.027558 
1.589476 0.787875 -0.012913 
1.610746 0.780374 0.127098 
1.589840 0.918017 -0.006143 
1.610694 0.911032 0.134870 
1.591507 0.821785 0.001403 
1.608892 0.815465 0.116481 
1.591529 0.883160 0.004148 
1.608875 0.877300 0.120259 
1.604985 0.910219 0.095974 
1.604916 0.785386 0.088506 
1.595397 0.788707 0.025936 
1.595357 0.912997 0.030763 
1.600090 0.758831 0.055704 
1.600365 0.939385 0.065651 
0.347423 0.832749 0.116744 
1.559787 0.831033 0.094497 
0.716827 0.828209 0.094838 
0.809347 0.828286 0.102424 
0.901986 0.827883 0.112633 
0.625003 0.828437 0.091449 
1.182839 0.827073 0.131699 
0.441022 0.828069 0.100771 
0.995385 0.827748 0.122894 
0.533120 0.828336 0.093491 
1.089081 0.827404 0.130029 
1.276467 0.826861 0.127361 
1.370415 0.826445 0.117652 
1.463882 0.826351 0.104021 
0.334389 0.817050 0.102604 
1.568690 0.816193 0.076223 
0.347785 0.867280 0.116650 
1.559792 0.865387 0.096629 
0.809276 0.873223 0.101349 
0.717082 0.873437 0.093421 
0.901675 0.872913 0.112058 
0.625083 0.873501 0.089598 
0.995265 0.872492 0.122903 
0.533161 0.873387 0.091464 
0.441005 0.873161 0.099569 
1.182787 0.871867 0.132904 
1.089023 0.872221 0.130522 
1.276719 0.871887 0.129606 
1.370290 0.871444 0.119697 
1.463815 0.871207 0.106456 
0.334729 0.882877 0.102569 
1.568717 0.881826 0.080246 
0.299901 0.849918 0.095536 
0.300829 0.832054 0.102638 
0.297593 0.842649 0.077518 
0.302368 0.856780 0.113593 
0.298894 0.868071 0.088753 
1.551881 0.833930 0.039006 
0.342314 0.822280 0.071750 
0.718395 0.826583 0.050034 
0.812235 0.826976 0.057464 
0.905404 0.827455 0.067787 
0.624983 0.826434 0.046170 
1.089810 0.828106 0.084988 
0.531077 0.826704 0.048402 
0.997805 0.827602 0.077831 
1.181634 0.828249 0.086782 
0.437303 0.826884 0.055432 
1.273771 0.828336 0.082142 
1.365675 0.828647 0.072584 
1.457991 0.828521 0.059067 
1.565138 0.817453 0.052012 
0.329336 0.837880 0.057753 
0.340956 0.867120 0.061177 
1.553280 0.878436 0.052298 
0.718664 0.871612 0.048407 
0.812229 0.871937 0.056352 
0.905701 0.872338 0.067073 
0.625175 0.871477 0.044571 
1.182016 0.873483 0.087833 
0.997975 0.872807 0.077901 
1.089996 0.873154 0.085529 
0.531137 0.871552 0.046430 
0.437290 0.871813 0.054279 
1.273850 0.873518 0.084244 
1.365965 0.873740 0.074711 
1.458091 0.873732 0.061479 
0.331814 0.882817 0.078364 
1.562090 0.863667 0.033943 
0.416390 0.593678 -0.004747 
0.348658 0.360423 0.000918 
0.372562 0.792332 -0.004743 
0.525933 0.713753 -0.014037 
0.538325 0.552144 -0.006258 
1.042132 0.849063 0.013756 
0.314840 0.681879 0.001539 
0.438485 0.469742 -0.000977 
0.293838 0.494968 -0.000519 
0.253317 0.188068 -0.001947 
0.619751 0.832352 -0.020634 
0.254748 0.776477 0.009190 
0.425483 0.697823 -0.007691 
1.173925 0.849824 0.019798 
0.407625 0.206278 0.007256 
1.356709 0.850897 0.005999 
0.505269 0.835761 -0.017793 
0.492828 0.633240 -0.009481 
0.479810 0.338172 0.005355 
0.591165 0.631353 -0.011415 
0.310989 0.588543 -0.000033 
0.237810 0.361180 -0.002940 
0.774417 0.829834 -0.013953 
0.547031 0.454278 -0.000749 
1.101927 0.797314 0.017414 
0.723963 0.523983 -0.002361 
0.912142 0.905001 -0.000826 
0.943902 0.778880 0.004384 
0.840623 0.525474 0.003719 
0.306707 0.886796 0.002635 
0.257461 0.641365 0.004655 
0.462631 0.525521 -0.003566 
0.372622 0.510260 -0.000950 
0.388908 0.884678 -0.008514 
0.595543 0.536107 -0.005797 
1.026714 0.768514 0.012664 
0.627719 0.743880 -0.016689 
0.996778 0.648085 0.011982 
0.180414 0.106559 -0.007252 
0.176245 0.800578 0.020987 
1.270292 0.793918 0.013441 
1.453601 0.796760 -0.011164 
0.183688 0.282172 -0.006492 
0.349826 0.113759 0.005662 
0.379636 0.647449 -0.003851 
0.943305 0.570164 0.009809 
0.212949 0.451509 -0.001373 
0.472160 0.755830 -0.012796 
0.256186 0.710908 0.007649 
0.363724 0.438268 0.000072 
0.185137 0.897503 0.022462 
0.294585 0.290647 -0.000115 
1.104854 0.914150 0.019458 
1.266085 0.895880 0.017437 
0.258152 0.565495 0.001575 
1.447102 0.909171 -0.003974 
0.569853 0.904900 -0.023602 
0.463278 0.144754 0.012157 
0.367365 0.720254 -0.003145 
0.487549 0.244592 0.009880 
0.445948 0.064676 0.013350 
0.292000 0.413883 -0.000715 
0.695032 0.900360 -0.022120 
0.618884 0.583302 -0.008595 
0.591205 0.481828 -0.002417 
0.541789 0.378103 0.004156 
0.553097 0.777117 -0.017940 
0.478929 0.575585 -0.006307 
0.700090 0.788639 -0.017344 
[...]
POINT_DATA 749
SCALARS u float 1
LOOKUP_TABLE default
0.045522
0.044078
0.037570
0.031926
0.071544
0.097870
0.053013
0.088471
0.024837
0.029196
0.012338
0.016716
0.020861
0.035168
0.045098
0.044054
0.037376
0.031887
0.071337
0.097557
0.054726
0.088495
0.025521
0.028706
0.012049
0.016465
0.021610
0.035154
0.066346
0.066130
0.057850
0.070011
0.017324
0.017799
0.011884
0.009851
0.027308
0.013977
0.025638
0.040935
0.035713
0.030500
0.023979
0.012552
0.005313
0.019814
0.056792
0.088374
0.059279
0.029071
0.038818
0.057235
0.061992
0.050806
0.028590
0.023087
0.043787
0.053602
0.050182
0.035982
0.030095
0.071888
0.017832
0.011542
0.021532
0.031108
0.037827
0.042273
0.011255
0.029756
0.024951
0.011046
0.026144
0.038927
0.032562
0.023736
0.031603
0.058508
0.027145
0.014091
0.025347
0.041148
0.035875
0.030635
0.024347
0.013736
0.005771
0.019862
0.055829
0.088298
0.058998
0.028692
0.038119
0.057804
0.062321
0.050841
0.028511
0.022597
0.043341
0.053957
0.050416
0.036211
0.032362
0.072294
0.017690
0.011716
0.021460
0.031409
0.037794
0.042152
0.011870
0.030109
0.025235
0.012244
0.025709
0.038622
0.033170
0.023737
0.031724
0.058625
0.043202
0.041759
0.029244
0.032956
0.066202
0.091456
0.043679
0.082215
0.021143
0.025911
0.007765
0.014024
0.016238
0.033884
0.069228
0.069184
0.060584
0.060839
0.015389
0.013889
0.013723
0.015033
0.035542
0.013583
0.027801
0.041195
0.043905
0.032814
0.013969
0.014619
0.034143
0.046904
0.047900
0.038342
0.018987
0.026228
0.005669
0.030907
0.045390
0.046401
0.034196
0.011584
0.014479
0.037346
0.050724
0.053220
0.041468
0.018375
0.034929
0.012789
0.027365
0.041170
0.043977
0.033006
0.014208
0.014775
0.033888
0.046843
0.048921
0.038312
0.019559
0.037405
0.004495
0.022654
0.039070
0.043017
0.032373
0.013018
0.010627
0.030120
0.042669
0.044184
0.034481
0.014438
0.052598
0.078095
0.078012
0.051849
0.076401
0.076577
0.060444
0.060788
0.071172
0.071343
0.063310
0.063478
0.056716
0.072966
0.072881
0.056763
0.075410
0.051917
0.006955
0.052095
0.038930
0.022423
0.003598
0.046330
0.042252
0.026100
0.022976
0.041891
0.038545
0.032863
0.012858
0.020061
0.002532
0.057163
0.007776
0.047531
0.024772
0.042034
0.004376
0.050402
0.023016
0.046346
0.028718
0.044907
0.039634
0.037825
0.016865
0.015204
0.003198
0.048372
0.011844
0.011703
0.012929
0.013172
0.012296
0.051813
0.005133
0.038474
0.022347
0.004080
0.046956
0.038490
0.042093
0.022918
0.042442
0.026923
0.032360
0.012423
0.019613
0.056966
0.008921
0.007987
0.045275
0.042062
0.024767
0.004789
0.050466
0.044758
0.023131
0.039698
0.046426
0.029438
0.036970
0.016616
0.014692
0.003534
0.052059
0.013062
0.006730
0.022423
0.032348
0.016626
0.033041
0.017444
0.006036
0.002292
0.013319
0.046033
0.032055
0.021124
0.043924
0.019546
0.027158
0.041077
0.022837
0.015109
0.026609
0.008331
0.010712
0.033643
0.009823
0.038734
0.010961
0.019892
0.019089
0.014484
0.027762
0.017070
0.010733
0.004118
0.029528
0.015948
0.030460
0.037430
0.029240
0.020452
0.054667
0.033080
0.038513
0.018412
0.017825
0.014141
0.025014
0.005347
0.031162
0.026549
0.003430
0.058827
0.010316
0.043645
0.040717
0.008828
0.029634
0.052793
0.029563
0.017263
0.024371
0.032445
0.003880
0.049791
0.021285
0.011078
0.013737
0.040514
0.016162
0.039544
0.008229
0.024794
0.013277
0.018339
0.067161
0.031810
0.012858
0.028593
0.039903
0.040091
0.024425
0.032893
0.022101
0.010339
0.044425
0.019655
0.019469
0.026346
0.033768
0.008745
0.043380
0.020187
0.028556
0.027603
0.022055
0.008386
0.064481
0.013318
0.012761
0.030774
0.021494
0.031368
0.011819
0.017880
0.011346
0.049217
0.024150
0.038316
0.009191
0.021811
0.026725
0.015142
0.032842
0.038358
0.023796
0.007134
0.037992
0.040384
0.005118
0.030538
0.051718
0.004742
0.076444
0.046540
0.012810
0.007089
0.021718
0.032283
0.016443
0.032934
0.015572
0.005898
0.001808
0.013713
0.045986
0.031671
0.021499
0.043946
0.020305
0.027993
0.040574
0.022339
0.014742
0.026604
0.007963
0.010930
0.034064
0.009519
0.038671
0.011495
0.019463
0.018757
0.015393
0.027272
0.016818
0.010662
0.004316
0.028483
0.016008
0.030305
0.037984
0.029373
0.020699
0.055014
0.033769
0.039187
0.017957
0.017800
0.013738
0.025495
0.006688
0.030345
0.025771
0.003750
0.059246
0.011041
0.043344
0.040540
0.008841
0.030780
0.052850
0.029954
0.017177
0.024528
0.032344
0.004139
0.049691
0.021360
0.011037
0.013558
0.039851
0.015611
0.038678
0.008474
0.025001
0.014179
0.018197
0.066167
0.031672
0.012975
0.027833
0.039441
0.039640
0.025000
0.032906
0.021725
0.010131
0.045604
0.019450
0.019737
0.026007
0.034642
0.008417
0.043884
0.020328
0.029259
0.027691
0.021803
0.008284
0.064803
0.013565
0.012370
0.030676
0.021192
0.031486
0.011147
0.018661
0.011710
0.049782
0.023922
0.038300
0.009345
0.021376
0.026007
0.015752
0.033021
0.038204
0.023748
0.007553
0.037378
0.039913
0.006402
0.030657
0.051819
0.004449
0.076521
0.045625
0.025103
0.038786
0.010633
0.033174
0.040898
0.003382
0.003417
0.041059
0.003144
0.011558
0.011176
0.028513
0.024510
0.024397
0.020338
0.023984
0.024073
0.022312
0.022518
0.011466
0.011084
0.007378
0.025489
0.028527
0.021605
0.002512
0.009762
0.009771
0.038996
0.000564
0.035555
0.025082
0.039659
0.062448
0.063771
0.039423
0.026024
0.016140
0.047367
0.063043
0.059035
0.037165
0.003964
0.029749
0.053226
0.055077
0.040154
0.011956
0.019386
0.063448
0.075175
0.030688
0.011934
0.009066
0.029419
0.030596
0.035726
0.025088
0.010291
0.018224
0.030825
0.003578
0.022069
0.040552
0.041055
0.023353
0.044955
0.058201
0.046419
0.058697
0.088739
0.088522
0.074879
0.074792
0.082184
0.040270
0.007194
0.007113
0.014240
0.004270
0.009006
0.009272
0.008753
0.019463
0.014290
0.019002
0.010554
0.009580
0.002921
0.002088
0.003708
0.003356
0.008792
0.011257
0.004691
0.008074
0.022815
0.011748
0.006502
0.001383
0.026324
0.019766
0.032394
0.038231
0.037456
0.032192
0.032767
0.034364
0.028484
0.027642
0.022623
0.022126
0.010493
0.002102
0.018250
0.005423
0.004027
0.002143
0.002747
0.001540
0.057348
0.049669
0.049376
0.037934
0.033468
0.010727
0.031275
0.031019
0.022532
0.016047
0.004945
0.004853
0.012341
0.011962
0.001939
0.005084
0.002075
0.003801
0.004717
0.004796
0.001288
0.016655
0.026535
0.018603
0.040407
0.006163
0.005674
0.038742
0.001791
0.013911
0.016756
0.062763
0.056651
0.020174
0.038501
0.038998
0.025764
0.029734
0.018653
0.029953
0.008530
0.004824
0.002460
0.037006
0.004130
0.039457
0.013983
0.010188
0.061960
0.020826
0.022893
0.032645
0.052907
0.028854
0.008766
0.012012
0.055048
0.027967
0.017677
0.030499
0.018879
0.008027
0.017706
0.025968
0.014058
0.005616
0.031499
0.032519
0.029493
0.027341
0.027955
0.028926
0.029991
0.031023
0.017983
0.030981
0.041899
0.053554
0.029024
0.017815
0.019603
0.039625
0.051654
0.063836
0.054301
0.048716
0.054536
0.041563
0.037239
0.043178
0.039184
0.023614
0.030386
0.025526
0.032331
0.034139
0.011710
0.011256
0.019152
0.013483
0.005647
0.063085
