# vtk DataFile Version 2.0
Unstructured Grid Example
ASCII
DATASET UNSTRUCTURED_GRID
POINTS 749 float
0.001940 -0.000023 -0.006112 
0.501829 -0.000736 0.005888 
0.197039 0.700953 0.004282 
0.700707 0.699027 -0.004334 
0.096131 0.700996 0.009253 
0.095328 1.000590 0.012958 
1.596107 1.001538 -0.006184 
1.595711 0.701339 -0.011625 
0.916710 0.499422 0.002997 
1.001928 0.699729 0.003622 
0.642977 0.498646 -0.001084 
0.657186 0.548583 -0.001880 
0.901653 0.549373 0.002347 
1.051685 0.699734 0.004651 
-0.001930 -0.000049 0.173948 
0.498181 0.000704 0.185891 
0.202906 0.698996 0.184274 
0.699335 0.700985 0.175668 
0.103745 0.699021 0.189274 
0.104615 0.999418 0.192931 
1.604265 0.998173 0.173843 
1.604260 0.698458 0.168386 
0.913215 0.500855 0.183001 
0.998157 0.700402 0.183577 
0.642631 0.501341 0.178984 
0.656973 0.551382 0.178145 
0.898274 0.550902 0.182339 
1.048410 0.700380 0.184674 
1.602172 0.849095 0.125955 
1.597967 0.850667 0.035934 
1.600098 0.894854 0.081853 
1.600065 0.804891 0.080139 
0.301795 0.849898 0.136651 
0.298119 0.850051 0.046657 
0.299931 0.895035 0.091672 
0.299938 0.805007 0.091386 
0.126954 -0.000075 -0.003313 
0.251944 -0.000276 -0.000145 
0.376928 -0.000505 0.003012 
0.026852 0.087493 -0.005461 
0.051750 0.175020 -0.004716 
0.076706 0.262590 -0.003942 
0.101492 0.350191 -0.003024 
0.125836 0.437926 -0.001498 
0.149813 0.525646 0.000328 
0.173817 0.613446 0.002344 
0.146204 0.701063 0.006962 
0.095550 0.850814 0.011598 
0.202636 1.000365 0.007020 
0.310288 0.999713 0.000838 
0.418580 0.999081 -0.004576 
0.527143 0.998658 -0.007820 
0.635884 0.998679 -0.008630 
0.744665 0.998847 -0.006828 
0.852693 0.999363 -0.002926 
0.959825 1.000077 0.001838 
1.066026 1.000721 0.005873 
1.171272 1.001084 0.007471 
1.276938 1.001472 0.006718 
1.382656 1.001703 0.003665 
1.489102 1.001664 -0.001050 
1.595790 0.851467 -0.009092 
0.852257 0.699562 -0.001013 
0.619282 0.415230 0.000725 
0.595979 0.331997 0.002620 
0.572506 0.248793 0.004072 
0.549119 0.165717 0.005024 
0.525544 0.082520 0.005638 
0.780228 0.499141 0.000296 
0.984246 0.599587 0.003788 
0.951738 0.624574 0.003025 
0.779794 0.549072 -0.000256 
0.678304 0.623759 -0.003457 
1.141776 0.700136 0.005481 
1.231978 0.700439 0.004360 
1.322317 0.700781 0.001836 
1.413024 0.701057 -0.002330 
1.504189 0.701283 -0.007008 
0.123088 -0.000011 0.176688 
0.248036 0.000202 0.179792 
0.373121 0.000441 0.183004 
0.023135 0.087427 0.174512 
0.048203 0.174902 0.175278 
0.073284 0.262321 0.176044 
0.098448 0.349696 0.176957 
0.123963 0.436984 0.178450 
0.150116 0.524243 0.180272 
0.176094 0.611475 0.182362 
0.153645 0.698902 0.186882 
0.104384 0.849216 0.191614 
0.211607 0.999669 0.187002 
0.318239 1.000271 0.180796 
0.424189 1.000885 0.175480 
0.529958 1.001310 0.172084 
0.635512 1.001318 0.171323 
0.741058 1.001186 0.173170 
0.847341 1.000677 0.177067 
0.954534 1.000004 0.181823 
1.062666 0.999382 0.185854 
1.171736 0.998998 0.187528 
1.280369 0.998594 0.186725 
1.388961 0.998416 0.183601 
1.496941 0.998283 0.178925 
1.604323 0.848290 0.170939 
0.847796 0.700515 0.178957 
0.618697 0.418110 0.180719 
0.594493 0.334721 0.182580 
0.570246 0.251171 0.184100 
0.546098 0.167622 0.185012 
0.522103 0.084106 0.185635 
0.777618 0.501001 0.180277 
0.980725 0.600608 0.183804 
0.948264 0.625660 0.183031 
0.777251 0.551073 0.179716 
0.678668 0.626233 0.176596 
1.141659 0.699929 0.185440 
1.234746 0.699684 0.184443 
1.327756 0.699304 0.181761 
1.420356 0.698936 0.177713 
1.512485 0.698584 0.173003 
-0.000042 -0.000043 0.083915 
0.499995 -0.000011 0.095882 
0.199925 0.699975 0.094119 
0.699943 0.699983 0.085358 
0.099865 0.700050 0.099325 
0.100000 1.000021 0.102883 
1.600231 0.999840 0.083853 
1.600004 0.699888 0.078419 
0.914969 0.500124 0.092976 
1.000025 0.700061 0.093649 
0.642834 0.500000 0.088906 
0.657098 0.550011 0.088025 
0.899959 0.550123 0.092284 
1.050019 0.700098 0.094772 
1.601525 0.817544 0.112209 
1.598612 0.818589 0.048542 
1.598640 0.882247 0.049766 
1.601556 0.881122 0.113421 
0.298628 0.881834 0.059859 
0.298769 0.818204 0.059701 
0.301159 0.818074 0.123363 
0.301296 0.881774 0.123494 
1.509154 0.849204 0.130485 
1.416071 0.849315 0.134943 
1.322689 0.849431 0.138664 
1.229199 0.849588 0.140754 
1.135679 0.849790 0.141181 
1.042250 0.849974 0.139582 
0.948922 0.850166 0.136638 
0.856064 0.850305 0.133273 
0.763481 0.850403 0.130275 
0.671030 0.850529 0.128426 
0.578834 0.850608 0.128285 
0.486617 0.850444 0.129694 
0.394225 0.850214 0.132712 
1.507242 0.894950 0.086307 
1.414364 0.895034 0.090794 
1.321517 0.895041 0.094353 
1.228670 0.895064 0.096393 
1.135801 0.895056 0.096536 
1.042922 0.895050 0.094816 
0.950047 0.895043 0.091631 
0.857166 0.895033 0.087961 
0.764294 0.895015 0.084739 
0.671447 0.895001 0.082855 
0.578582 0.894972 0.082503 
0.485681 0.894969 0.084159 
0.392887 0.894960 0.087412 
1.505283 0.850692 0.040497 
1.412632 0.850713 0.044952 
1.320326 0.850627 0.048640 
1.228021 0.850518 0.050750 
1.135882 0.850343 0.051183 
1.043596 0.850122 0.049589 
0.951170 0.849940 0.046623 
0.858258 0.849790 0.043255 
0.765068 0.849617 0.040306 
0.671791 0.849432 0.038436 
0.578230 0.849430 0.038141 
0.484852 0.849523 0.039694 
0.391395 0.849770 0.042676 
1.507214 0.804924 0.084732 
1.414312 0.805039 0.089369 
1.321465 0.805021 0.093191 
1.228705 0.805044 0.095502 
1.135670 0.805078 0.096059 
1.042918 0.805072 0.094559 
0.950048 0.805056 0.091832 
0.857181 0.805046 0.088504 
0.764302 0.805039 0.085757 
0.671439 0.805002 0.083989 
0.578575 0.805035 0.083776 
0.485653 0.805006 0.085143 
0.392842 0.804985 0.087966 
1.601995 0.950924 0.123236 
1.601924 0.747423 0.119511 
1.598114 0.748726 0.038871 
1.598373 0.951832 0.043375 
1.596741 0.785541 0.009827 
1.603328 0.783218 0.149788 
1.596853 0.915490 0.011308 
1.603312 0.914120 0.152196 
1.597370 0.819877 0.022880 
1.602754 0.817919 0.137882 
1.597376 0.881152 0.023038 
1.602749 0.879840 0.139052 
1.601544 0.911787 0.113374 
1.601523 0.786779 0.111118 
1.598575 0.787807 0.048577 
1.598562 0.911964 0.048263 
1.600028 0.759081 0.079378 
1.600113 0.939704 0.081945 
0.345353 0.832750 0.117438 
1.556880 0.832218 0.110548 
0.717538 0.827720 0.107030 
0.810291 0.827743 0.109379 
0.903080 0.827619 0.112541 
0.625001 0.827790 0.105980 
1.182359 0.827368 0.118446 
0.439824 0.827676 0.108867 
0.996105 0.827577 0.115719 
0.532445 0.827759 0.106612 
1.089222 0.827470 0.117929 
1.275454 0.827302 0.117103 
1.368649 0.827173 0.114096 
1.461695 0.827144 0.109874 
0.333668 0.817102 0.102273 
1.567286 0.816836 0.094102 
0.345465 0.867259 0.117409 
1.556882 0.866673 0.111208 
0.810269 0.872724 0.109046 
0.717617 0.872790 0.106591 
0.902984 0.872628 0.112363 
0.625026 0.872810 0.105407 
0.996068 0.872498 0.115722 
0.532458 0.872775 0.105985 
0.439818 0.872705 0.108495 
1.182342 0.872304 0.118820 
1.089204 0.872413 0.118082 
1.275532 0.872310 0.117798 
1.368611 0.872173 0.114729 
1.461675 0.872099 0.110628 
0.333773 0.882876 0.102262 
1.567294 0.882550 0.095349 
0.299969 0.849948 0.091818 
0.300257 0.832155 0.099010 
0.299255 0.842620 0.073815 
0.300734 0.856907 0.109797 
0.299657 0.868022 0.084969 
1.554432 0.833115 0.055051 
0.343770 0.822259 0.072440 
0.718024 0.827216 0.062090 
0.811185 0.827338 0.064392 
0.904139 0.827486 0.067589 
0.624995 0.827170 0.060894 
1.089448 0.827688 0.072916 
0.531813 0.827253 0.061585 
0.996855 0.827532 0.070700 
1.181985 0.827732 0.073472 
0.438672 0.827309 0.063762 
1.274619 0.827759 0.072035 
1.367181 0.827855 0.069075 
1.459871 0.827816 0.064888 
1.566186 0.817227 0.069865 
0.332103 0.837877 0.057319 
0.343350 0.867210 0.061918 
1.554865 0.877963 0.066416 
0.718107 0.872225 0.061587 
0.811183 0.872326 0.064047 
0.904231 0.872450 0.067368 
0.625054 0.872183 0.060398 
1.182104 0.872804 0.073797 
0.996907 0.872595 0.070722 
1.089506 0.872702 0.073084 
0.531831 0.872206 0.060974 
0.438668 0.872287 0.063405 
1.274644 0.872815 0.072686 
1.367271 0.872884 0.069733 
1.459902 0.872882 0.065635 
0.332870 0.882857 0.078026 
1.565242 0.862603 0.049945 
0.418591 0.594788 -0.001470 
0.346932 0.361465 0.000284 
0.378763 0.792944 -0.001469 
0.528060 0.715926 -0.004348 
0.539192 0.554943 -0.001938 
1.037963 0.848812 0.004261 
0.320178 0.681279 0.000477 
0.438701 0.471500 -0.000303 
0.294346 0.494606 -0.000161 
0.249401 0.188654 -0.000603 
0.619530 0.834791 -0.006391 
0.262470 0.775295 0.002846 
0.429346 0.698759 -0.002382 
1.174496 0.848070 0.006132 
0.404407 0.207765 0.002247 
1.363583 0.848015 0.001858 
0.508543 0.837938 -0.005511 
0.494943 0.635266 -0.002936 
0.478324 0.340746 0.001659 
0.591952 0.634014 -0.003535 
0.313572 0.588129 -0.000010 
0.235138 0.360952 -0.000911 
0.770477 0.831642 -0.004322 
0.546891 0.457315 -0.000232 
1.100224 0.796614 0.005393 
0.722292 0.526511 -0.000731 
0.905959 0.905672 -0.000256 
0.938760 0.779446 0.001358 
0.837248 0.527116 0.001152 
0.315228 0.887017 0.000816 
0.261362 0.639583 0.001442 
0.463612 0.527603 -0.001105 
0.373544 0.510886 -0.000294 
0.395981 0.885852 -0.002637 
0.595823 0.539103 -0.001795 
1.022846 0.768792 0.003922 
0.627653 0.746197 -0.005169 
0.992879 0.648899 0.003711 
0.176394 0.106663 -0.002246 
0.185254 0.798696 0.006500 
1.274549 0.792006 0.004163 
1.462414 0.793735 -0.003458 
0.180038 0.282238 -0.002011 
0.345930 0.114685 0.001754 
0.383144 0.648024 -0.001193 
0.939483 0.571269 0.003038 
0.212158 0.450372 -0.000425 
0.476003 0.757539 -0.003963 
0.262422 0.709265 0.002369 
0.363324 0.439267 0.000022 
0.195100 0.896309 0.006957 
0.291392 0.291179 -0.000036 
1.102585 0.912664 0.006026 
1.269498 0.893254 0.005401 
0.260284 0.564098 0.000488 
1.455282 0.905690 -0.001231 
0.571438 0.907501 -0.007310 
0.459839 0.146726 0.003765 
0.372302 0.720788 -0.000974 
0.484967 0.246908 0.003060 
0.441890 0.066215 0.004135 
0.290889 0.413807 -0.000221 
0.692698 0.902765 -0.006851 
0.619332 0.586344 -0.002662 
0.591155 0.484879 -0.000749 
0.540900 0.381197 0.001287 
0.554836 0.779440 -0.005557 
0.480467 0.577689 -0.001953 
0.697611 0.790798 -0.005372 
[...]
POINT_DATA 749
SCALARS u float 1
LOOKUP_TABLE default
0.045522
0.044078
0.037570
0.031926
0.071544
0.097870
0.053013
0.088471
0.024837
0.029196
0.012338
0.016716
0.020861
0.035168
0.045098
0.044054
0.037376
0.031887
0.071337
0.097557
0.054726
0.088495
0.025521
0.028706
0.012049
0.016465
0.021610
0.035154
0.066346
0.066130
0.057850
0.070011
0.017324
0.017799
0.011884
0.009851
0.027308
0.013977
0.025638
0.040935
0.035713
0.030500
0.023979
0.012552
0.005313
0.019814
0.056792
0.088374
0.059279
0.029071
0.038818
0.057235
0.061992
0.050806
0.028590
0.023087
0.043787
0.053602
0.050182
0.035982
0.030095
0.071888
0.017832
0.011542
0.021532
0.031108
0.037827
0.042273
0.011255
0.029756
0.024951
0.011046
0.026144
0.038927
0.032562
0.023736
0.031603
0.058508
0.027145
0.014091
0.025347
0.041148
0.035875
0.030635
0.024347
0.013736
0.005771
0.019862
0.055829
0.088298
0.058998
0.028692
0.038119
0.057804
0.062321
0.050841
0.028511
0.022597
0.043341
0.053957
0.050416
0.036211
0.032362
0.072294
0.017690
0.011716
0.021460
0.031409
0.037794
0.042152
0.011870
0.030109
0.025235
0.012244
0.025709
0.038622
0.033170
0.023737
0.031724
0.058625
0.043202
0.041759
0.029244
0.032956
0.066202
0.091456
0.043679
0.082215
0.021143
0.025911
0.007765
0.014024
0.016238
0.033884
0.069228
0.069184
0.060584
0.060839
0.015389
0.013889
0.013723
0.015033
0.035542
0.013583
0.027801
0.041195
0.043905
0.032814
0.013969
0.014619
0.034143
0.046904
0.047900
0.038342
0.018987
0.026228
0.005669
0.030907
0.045390
0.046401
0.034196
0.011584
0.014479
0.037346
0.050724
0.053220
0.041468
0.018375
0.034929
0.012789
0.027365
0.041170
0.043977
0.033006
0.014208
0.014775
0.033888
0.046843
0.048921
0.038312
0.019559
0.037405
0.004495
0.022654
0.039070
0.043017
0.032373
0.013018
0.010627
0.030120
0.042669
0.044184
0.034481
0.014438
0.052598
0.078095
0.078012
0.051849
0.076401
0.076577
0.060444
0.060788
0.071172
0.071343
0.063310
0.063478
0.056716
0.072966
0.072881
0.056763
0.075410
0.051917
0.006955
0.052095
0.038930
0.022423
0.003598
0.046330
0.042252
0.026100
0.022976
0.041891
0.038545
0.032863
0.012858
0.020061
0.002532
0.057163
0.007776
0.047531
0.024772
0.042034
0.004376
0.050402
0.023016
0.046346
0.028718
0.044907
0.039634
0.037825
0.016865
0.015204
0.003198
0.048372
0.011844
0.011703
0.012929
0.013172
0.012296
0.051813
0.005133
0.038474
0.022347
0.004080
0.046956
0.038490
0.042093
0.022918
0.042442
0.026923
0.032360
0.012423
0.019613
0.056966
0.008921
0.007987
0.045275
0.042062
0.024767
0.004789
0.050466
0.044758
0.023131
0.039698
0.046426
0.029438
0.036970
0.016616
0.014692
0.003534
0.052059
0.013062
0.006730
0.022423
0.032348
0.016626
0.033041
0.017444
0.006036
0.002292
0.013319
0.046033
0.032055
0.021124
0.043924
0.019546
0.027158
0.041077
0.022837
0.015109
0.026609
0.008331
0.010712
0.033643
0.009823
0.038734
0.010961
0.019892
0.019089
0.014484
0.027762
0.017070
0.010733
0.004118
0.029528
0.015948
0.030460
0.037430
0.029240
0.020452
0.054667
0.033080
0.038513
0.018412
0.017825
0.014141
0.025014
0.005347
0.031162
0.026549
0.003430
0.058827
0.010316
0.043645
0.040717
0.008828
0.029634
0.052793
0.029563
0.017263
0.024371
0.032445
0.003880
0.049791
0.021285
0.011078
0.013737
0.040514
0.016162
0.039544
0.008229
0.024794
0.013277
0.018339
0.067161
0.031810
0.012858
0.028593
0.039903
0.040091
0.024425
0.032893
0.022101
0.010339
0.044425
0.019655
0.019469
0.026346
0.033768
0.008745
0.043380
0.020187
0.028556
0.027603
0.022055
0.008386
0.064481
0.013318
0.012761
0.030774
0.021494
0.031368
0.011819
0.017880
0.011346
0.049217
0.024150
0.038316
0.009191
0.021811
0.026725
0.015142
0.032842
0.038358
0.023796
0.007134
0.037992
0.040384
0.005118
0.030538
0.051718
0.004742
0.076444
0.046540
0.012810
0.007089
0.021718
0.032283
0.016443
0.032934
0.015572
0.005898
0.001808
0.013713
0.045986
0.031671
0.021499
0.043946
0.020305
0.027993
0.040574
0.022339
0.014742
0.026604
0.007963
0.010930
0.034064
0.009519
0.038671
0.011495
0.019463
0.018757
0.015393
0.027272
0.016818
0.010662
0.004316
0.028483
0.016008
0.030305
0.037984
0.029373
0.020699
0.055014
0.033769
0.039187
0.017957
0.017800
0.013738
0.025495
0.006688
0.030345
0.025771
0.003750
0.059246
0.011041
0.043344
0.040540
0.008841
0.030780
0.052850
0.029954
0.017177
0.024528
0.032344
0.004139
0.049691
0.021360
0.011037
0.013558
0.039851
0.015611
0.038678
0.008474
0.025001
0.014179
0.018197
0.066167
0.031672
0.012975
0.027833
0.039441
0.039640
0.025000
0.032906
0.021725
0.010131
0.045604
0.019450
0.019737
0.026007
0.034642
0.008417
0.043884
0.020328
0.029259
0.027691
0.021803
0.008284
0.064803
0.013565
0.012370
0.030676
0.021192
0.031486
0.011147
0.018661
0.011710
0.049782
0.023922
0.038300
0.009345
0.021376
0.026007
0.015752
0.033021
0.038204
0.023748
0.007553
0.037378
0.039913
0.006402
0.030657
0.051819
0.004449
0.076521
0.045625
0.025103
0.038786
0.010633
0.033174
0.040898
0.003382
0.003417
0.041059
0.003144
0.011558
0.011176
0.028513
0.024510
0.024397
0.020338
0.023984
0.024073
0.022312
0.022518
0.011466
0.011084
0.007378
0.025489
0.028527
0.021605
0.002512
0.009762
0.009771
0.038996
0.000564
0.035555
0.025082
0.039659
0.062448
0.063771
0.039423
0.026024
0.016140
0.047367
0.063043
0.059035
0.037165
0.003964
0.029749
0.053226
0.055077
0.040154
0.011956
0.019386
0.063448
0.075175
0.030688
0.011934
0.009066
0.029419
0.030596
0.035726
0.025088
0.010291
0.018224
0.030825
0.003578
0.022069
0.040552
0.041055
0.023353
0.044955
0.058201
0.046419
0.058697
0.088739
0.088522
0.074879
0.074792
0.082184
0.040270
0.007194
0.007113
0.014240
0.004270
0.009006
0.009272
0.008753
0.019463
0.014290
0.019002
0.010554
0.009580
0.002921
0.002088
0.003708
0.003356
0.008792
0.011257
0.004691
0.008074
0.022815
0.011748
0.006502
0.001383
0.026324
0.019766
0.032394
0.038231
0.037456
0.032192
0.032767
0.034364
0.028484
0.027642
0.022623
0.022126
0.010493
0.002102
0.018250
0.005423
0.004027
0.002143
0.002747
0.001540
0.057348
0.049669
0.049376
0.037934
0.033468
0.010727
0.031275
0.031019
0.022532
0.016047
0.004945
0.004853
0.012341
0.011962
0.001939
0.005084
0.002075
0.003801
0.004717
0.004796
0.001288
0.016655
0.026535
0.018603
0.040407
0.006163
0.005674
0.038742
0.001791
0.013911
0.016756
0.062763
0.056651
0.020174
0.038501
0.038998
0.025764
0.029734
0.018653
0.029953
0.008530
0.004824
0.002460
0.037006
0.004130
0.039457
0.013983
0.010188
0.061960
0.020826
0.022893
0.032645
0.052907
0.028854
0.008766
0.012012
0.055048
0.027967
0.017677
0.030499
0.018879
0.008027
0.017706
0.025968
0.014058
0.005616
0.031499
0.032519
0.029493
0.027341
0.027955
0.028926
0.029991
0.031023
0.017983
0.030981
0.041899
0.053554
0.029024
0.017815
0.019603
0.039625
0.051654
0.063836
0.054301
0.048716
0.054536
0.041563
0.037239
0.043178
0.039184
0.023614
0.030386
0.025526
0.032331
0.034139
0.011710
0.011256
0.019152
0.013483
0.005647
0.063085
