# vtk DataFile Version 2.0
Unstructured Grid Example
ASCII
DATASET UNSTRUCTURED_GRID
POINTS 749 float
0.006814 -0.000080 -0.021474 
0.506426 -0.002586 0.020686 
0.189598 0.703347 0.015044 
0.702485 0.696583 -0.015225 
0.086408 0.703500 0.032508 
0.083586 1.002072 0.045524 
1.586322 1.005405 -0.021727 
1.584932 0.704706 -0.040841 
0.921008 0.497969 0.010530 
1.006775 0.699047 0.012727 
0.643278 0.495245 -0.003807 
0.657294 0.545020 -0.006605 
0.905806 0.547797 0.008248 
1.055921 0.699067 0.016341 
-0.006780 -0.000173 0.158736 
0.493610 0.002472 0.200698 
0.210211 0.696471 0.195015 
0.697663 0.703462 0.164782 
0.113157 0.696561 0.212581 
0.116213 0.997954 0.225432 
1.614983 0.993582 0.158369 
1.614965 0.694584 0.139197 
0.908728 0.503005 0.190543 
0.993525 0.701411 0.192566 
0.642061 0.504710 0.176431 
0.656546 0.554855 0.173482 
0.893936 0.553170 0.188219 
1.044414 0.701335 0.196422 
1.607632 0.846821 0.103223 
1.592857 0.852344 0.013147 
1.600345 0.894487 0.061376 
1.600227 0.804618 0.055353 
0.306305 0.849640 0.140799 
0.293391 0.850178 0.050821 
0.299758 0.895124 0.095875 
0.299782 0.805026 0.094871 
0.131865 -0.000265 -0.011639 
0.256830 -0.000968 -0.000510 
0.381775 -0.001775 0.010581 
0.031507 0.087476 -0.019185 
0.056150 0.175071 -0.016570 
0.080995 0.262818 -0.013850 
0.105242 0.350673 -0.010626 
0.127938 0.438998 -0.005264 
0.149342 0.527269 0.001154 
0.170842 0.615823 0.008236 
0.136665 0.703736 0.024458 
0.084366 0.852859 0.040748 
0.191308 1.001283 0.024664 
0.300239 0.998990 0.002944 
0.411419 0.996770 -0.016076 
0.523551 0.995285 -0.027476 
0.636312 0.995360 -0.030322 
0.749209 0.995949 -0.023989 
0.859462 0.997763 -0.010280 
0.966565 1.000270 0.006457 
1.070401 1.002535 0.020635 
1.170877 1.003807 0.026248 
1.272834 1.005170 0.023604 
1.374968 1.005985 0.012877 
1.479664 1.005845 -0.003688 
1.585209 0.855155 -0.031945 
0.857928 0.698462 -0.003558 
0.619870 0.411620 0.002546 
0.597840 0.328637 0.009205 
0.575213 0.245759 0.014308 
0.552887 0.163329 0.017652 
0.529905 0.080475 0.019809 
0.783494 0.496983 0.001042 
0.988636 0.598549 0.013309 
0.956107 0.623504 0.010628 
0.782867 0.546740 -0.000900 
0.677632 0.620640 -0.012146 
1.142051 0.700478 0.019256 
1.228571 0.701542 0.015318 
1.315574 0.702746 0.006451 
1.403868 0.703713 -0.008188 
1.493773 0.704509 -0.024620 
0.118283 -0.000038 0.168365 
0.243101 0.000711 0.179270 
0.368399 0.001551 0.190554 
0.018448 0.087245 0.160720 
0.043685 0.174655 0.163410 
0.068973 0.261869 0.166102 
0.094546 0.348931 0.169309 
0.121356 0.435688 0.174555 
0.150408 0.522340 0.180957 
0.178845 0.608900 0.188299 
0.162807 0.696143 0.204177 
0.115402 0.847246 0.220803 
0.222826 0.998839 0.204602 
0.328175 1.000954 0.182795 
0.431128 1.003108 0.164120 
0.533442 1.004604 0.152188 
0.635005 1.004630 0.149514 
0.736536 1.004166 0.156004 
0.840659 1.002377 0.169694 
0.947976 1.000016 0.186406 
1.058594 0.997830 0.200567 
1.172508 0.996479 0.206449 
1.284888 0.995060 0.203628 
1.397121 0.994435 0.192652 
1.507206 0.993968 0.176225 
1.615187 0.843993 0.148166 
0.842257 0.701809 0.176336 
0.617817 0.421738 0.182527 
0.592622 0.338210 0.189065 
0.567274 0.254114 0.194403 
0.542273 0.170022 0.197608 
0.517813 0.086046 0.199796 
0.774325 0.503518 0.180971 
0.976265 0.602136 0.193365 
0.943902 0.627319 0.190650 
0.773933 0.553769 0.179001 
0.678910 0.629331 0.168041 
1.141638 0.699751 0.199113 
1.238295 0.698890 0.195609 
1.334683 0.697554 0.186186 
1.429628 0.696263 0.171965 
1.522921 0.695026 0.155418 
-0.000147 -0.000151 0.068620 
0.499982 -0.000040 0.110667 
0.199735 0.699912 0.104471 
0.699799 0.699940 0.073691 
0.099524 0.700177 0.122760 
0.100000 1.000075 0.135262 
1.600811 0.999437 0.068405 
1.600014 0.699605 0.049313 
0.914890 0.500436 0.100454 
1.000087 0.700214 0.102822 
0.642776 0.500000 0.086158 
0.656985 0.550038 0.083061 
0.899855 0.550431 0.098024 
1.050066 0.700345 0.106766 
1.605357 0.815944 0.088054 
1.595125 0.819615 0.024320 
1.595222 0.883321 0.028618 
1.605468 0.879367 0.092312 
0.295181 0.881871 0.064078 
0.295676 0.818263 0.063523 
0.304073 0.817806 0.127242 
0.304554 0.881659 0.127700 
1.514207 0.847202 0.119136 
1.420559 0.847592 0.134800 
1.325858 0.848000 0.147872 
1.230778 0.848551 0.155216 
1.135591 0.849263 0.156716 
1.040724 0.849907 0.151099 
0.946212 0.850584 0.140754 
0.853352 0.851071 0.128931 
0.761457 0.851414 0.118401 
0.670029 0.851857 0.111904 
0.579494 0.852138 0.111409 
0.488886 0.851562 0.116357 
0.397664 0.850752 0.126961 
1.507492 0.894824 0.077025 
1.414562 0.895118 0.092789 
1.321741 0.895144 0.105292 
1.228917 0.895224 0.112460 
1.136019 0.895198 0.112962 
1.043086 0.895176 0.106922 
0.950165 0.895151 0.095729 
0.857223 0.895117 0.082836 
0.764313 0.895053 0.071517 
0.671495 0.895004 0.064896 
0.578610 0.894901 0.063661 
0.485598 0.894889 0.069477 
0.392961 0.894861 0.080908 
1.500610 0.852430 0.029181 
1.408475 0.852504 0.044831 
1.317554 0.852204 0.057789 
1.226639 0.851821 0.065202 
1.136303 0.851206 0.066723 
1.045453 0.850430 0.061122 
0.954111 0.849790 0.050701 
0.861062 0.849262 0.038871 
0.767033 0.848654 0.028510 
0.672702 0.848006 0.021938 
0.577371 0.847999 0.020901 
0.482684 0.848324 0.026358 
0.387719 0.849192 0.036837 
1.507391 0.804734 0.071492 
1.414378 0.805138 0.087782 
1.321557 0.805075 0.101211 
1.229042 0.805156 0.109330 
1.135560 0.805274 0.111287 
1.043071 0.805254 0.106018 
0.950168 0.805196 0.096437 
0.857277 0.805162 0.084745 
0.764344 0.805137 0.075094 
0.671466 0.805008 0.068883 
0.578585 0.805125 0.068133 
0.485500 0.805020 0.072936 
0.392803 0.804947 0.082855 
1.607008 0.948681 0.105443 
1.606761 0.745512 0.092356 
1.593374 0.750091 0.011696 
1.594284 0.953269 0.025537 
1.588549 0.788173 -0.015817 
1.611694 0.780010 0.124200 
1.588945 0.918340 -0.008372 
1.611637 0.910637 0.132657 
1.590758 0.822029 -0.001340 
1.609676 0.815152 0.113748 
1.590782 0.883416 0.001735 
1.609658 0.876976 0.117859 
1.605424 0.910019 0.093752 
1.605350 0.785208 0.085618 
1.594992 0.788822 0.023044 
1.594948 0.913129 0.028528 
1.600098 0.758799 0.052681 
1.600397 0.939344 0.063570 
0.347687 0.832749 0.116655 
1.560158 0.830881 0.092447 
0.716736 0.828272 0.093281 
0.809227 0.828355 0.101536 
0.901846 0.827916 0.112645 
0.625003 0.828520 0.089593 
1.182901 0.827035 0.133392 
0.441176 0.828119 0.099737 
0.995293 0.827770 0.123811 
0.533206 0.828409 0.091815 
1.089063 0.827396 0.131575 
1.276597 0.826805 0.128671 
1.370641 0.826353 0.118106 
1.464161 0.826249 0.103273 
0.334481 0.817044 0.102647 
1.568870 0.816111 0.073939 
0.348081 0.867283 0.116553 
1.560163 0.865222 0.094767 
0.809149 0.873287 0.100366 
0.717014 0.873519 0.091739 
0.901508 0.872949 0.112019 
0.625091 0.873589 0.087580 
0.995162 0.872492 0.123820 
0.533250 0.873465 0.089610 
0.441156 0.873219 0.098429 
1.182844 0.871811 0.134703 
1.089000 0.872196 0.132111 
1.276870 0.871833 0.131114 
1.370504 0.871351 0.120332 
1.464089 0.871093 0.105923 
0.334851 0.882878 0.102608 
1.568899 0.881734 0.078318 
0.299892 0.849914 0.096011 
0.300903 0.832041 0.103101 
0.297381 0.842653 0.077991 
0.302577 0.856764 0.114078 
0.298796 0.868077 0.089236 
1.551555 0.834034 0.036957 
0.342128 0.822283 0.071662 
0.718442 0.826502 0.048494 
0.812369 0.826930 0.056579 
0.905566 0.827451 0.067812 
0.624982 0.826340 0.044290 
1.089857 0.828160 0.086529 
0.530983 0.826634 0.046718 
0.997926 0.827611 0.078742 
1.181589 0.828315 0.088482 
0.437128 0.826829 0.054368 
1.273662 0.828410 0.083433 
1.365483 0.828748 0.073033 
1.457751 0.828611 0.058324 
1.565005 0.817482 0.049733 
0.328982 0.837880 0.057808 
0.340650 0.867108 0.061082 
1.553077 0.878497 0.050495 
0.718735 0.871534 0.046724 
0.812363 0.871888 0.055369 
0.905889 0.872323 0.067035 
0.625191 0.871387 0.042550 
1.182005 0.873570 0.089625 
0.998111 0.872835 0.078818 
1.090059 0.873211 0.087119 
0.531048 0.871468 0.044573 
0.437114 0.871752 0.053113 
1.273749 0.873608 0.085720 
1.365799 0.873849 0.075347 
1.457860 0.873841 0.060949 
0.331680 0.882812 0.078407 
1.561687 0.863803 0.031900 
0.416108 0.593536 -0.005166 
0.348878 0.360290 0.000999 
0.371770 0.792253 -0.005161 
0.525661 0.713476 -0.015275 
0.538214 0.551786 -0.006810 
1.042664 0.849095 0.014969 
0.314158 0.681956 0.001675 
0.438457 0.469518 -0.001063 
0.293774 0.495015 -0.000564 
0.253817 0.187993 -0.002118 
0.619779 0.832040 -0.022453 
0.253762 0.776627 0.010000 
0.424990 0.697704 -0.008369 
1.173852 0.850048 0.021543 
0.408036 0.206088 0.007896 
1.355831 0.851265 0.006528 
0.504851 0.835483 -0.019362 
0.492558 0.632981 -0.010316 
0.479999 0.337843 0.005827 
0.591064 0.631013 -0.012421 
0.310660 0.588595 -0.000036 
0.238151 0.361210 -0.003199 
0.774920 0.829603 -0.015183 
0.547049 0.453890 -0.000815 
1.102144 0.797404 0.018949 
0.724177 0.523660 -0.002569 
0.912931 0.904915 -0.000899 
0.944559 0.778808 0.004770 
0.841054 0.525265 0.004047 
0.305618 0.886768 0.002868 
0.256963 0.641593 0.005066 
0.462506 0.525255 -0.003880 
0.372504 0.510180 -0.001034 
0.388005 0.884528 -0.009265 
0.595507 0.535724 -0.006308 
1.027208 0.768479 0.013780 
0.627728 0.743584 -0.018161 
0.997276 0.647982 0.013038 
0.180928 0.106546 -0.007892 
0.175094 0.800818 0.022837 
1.269749 0.794162 0.014626 
1.452476 0.797146 -0.012148 
0.184155 0.282164 -0.007064 
0.350324 0.113641 0.006161 
0.379188 0.647375 -0.004191 
0.943793 0.570022 0.010674 
0.213050 0.451655 -0.001495 
0.471669 0.755612 -0.013925 
0.255389 0.711118 0.008324 
0.363775 0.438141 0.000078 
0.183865 0.897656 0.024442 
0.294993 0.290579 -0.000125 
1.105144 0.914339 0.021173 
1.265650 0.896216 0.018974 
0.257879 0.565674 0.001714 
1.446058 0.909616 -0.004325 
0.569651 0.904568 -0.025683 
0.463718 0.144502 0.013229 
0.366734 0.720186 -0.003422 
0.487879 0.244296 0.010751 
0.446466 0.064479 0.014527 
0.292142 0.413892 -0.000778 
0.695329 0.900053 -0.024070 
0.618827 0.582914 -0.009353 
0.591212 0.481439 -0.002630 
0.541902 0.377707 0.004523 
0.552875 0.776821 -0.019522 
0.478733 0.575316 -0.006863 
0.700406 0.788364 -0.018873 
[...]
POINT_DATA 749
SCALARS u float 1
LOOKUP_TABLE default
0.045522
0.044078
0.037570
0.031926
0.071544
0.097870
0.053013
0.088471
0.024837
0.029196
0.012338
0.016716
0.020861
0.035168
0.045098
0.044054
0.037376
0.031887
0.071337
0.097557
0.054726
0.088495
0.025521
0.028706
0.012049
0.016465
0.021610
0.035154
0.066346
0.066130
0.057850
0.070011
0.017324
0.017799
0.011884
0.009851
0.027308
0.013977
0.025638
0.040935
0.035713
0.030500
0.023979
0.012552
0.005313
0.019814
0.056792
0.088374
0.059279
0.029071
0.038818
0.057235
0.061992
0.050806
0.028590
0.023087
0.043787
0.053602
0.050182
0.035982
0.030095
0.071888
0.017832
0.011542
0.021532
0.031108
0.037827
0.042273
0.011255
0.029756
0.024951
0.011046
0.026144
0.038927
0.032562
0.023736
0.031603
0.058508
0.027145
0.014091
0.025347
0.041148
0.035875
0.030635
0.024347
0.013736
0.005771
0.019862
0.055829
0.088298
0.058998
0.028692
0.038119
0.057804
0.062321
0.050841
0.028511
0.022597
0.043341
0.053957
0.050416
0.036211
0.032362
0.072294
0.017690
0.011716
0.021460
0.031409
0.037794
0.042152
0.011870
0.030109
0.025235
0.012244
0.025709
0.038622
0.033170
0.023737
0.031724
0.058625
0.043202
0.041759
0.029244
0.032956
0.066202
0.091456
0.043679
0.082215
0.021143
0.025911
0.007765
0.014024
0.016238
0.033884
0.069228
0.069184
0.060584
0.060839
0.015389
0.013889
0.013723
0.015033
0.035542
0.013583
0.027801
0.041195
0.043905
0.032814
0.013969
0.014619
0.034143
0.046904
0.047900
0.038342
0.018987
0.026228
0.005669
0.030907
0.045390
0.046401
0.034196
0.011584
0.014479
0.037346
0.050724
0.053220
0.041468
0.018375
0.034929
0.012789
0.027365
0.041170
0.043977
0.033006
0.014208
0.014775
0.033888
0.046843
0.048921
0.038312
0.019559
0.037405
0.004495
0.022654
0.039070
0.043017
0.032373
0.013018
0.010627
0.030120
0.042669
0.044184
0.034481
0.014438
0.052598
0.078095
0.078012
0.051849
0.076401
0.076577
0.060444
0.060788
0.071172
0.071343
0.063310
0.063478
0.056716
0.072966
0.072881
0.056763
0.075410
0.051917
0.006955
0.052095
0.038930
0.022423
0.003598
0.046330
0.042252
0.026100
0.022976
0.041891
0.038545
0.032863
0.012858
0.020061
0.002532
0.057163
0.007776
0.047531
0.024772
0.042034
0.004376
0.050402
0.023016
0.046346
0.028718
0.044907
0.039634
0.037825
0.016865
0.015204
0.003198
0.048372
0.011844
0.011703
0.012929
0.013172
0.012296
0.051813
0.005133
0.038474
0.022347
0.004080
0.046956
0.038490
0.042093
0.022918
0.042442
0.026923
0.032360
0.012423
0.019613
0.056966
0.008921
0.007987
0.045275
0.042062
0.024767
0.004789
0.050466
0.044758
0.023131
0.039698
0.046426
0.029438
0.036970
0.016616
0.014692
0.003534
0.052059
0.013062
0.006730
0.022423
0.032348
0.016626
0.033041
0.017444
0.006036
0.002292
0.013319
0.046033
0.032055
0.021124
0.043924
0.019546
0.027158
0.041077
0.022837
0.015109
0.026609
0.008331
0.010712
0.033643
0.009823
0.038734
0.010961
0.019892
0.019089
0.014484
0.027762
0.017070
0.010733
0.004118
0.029528
0.015948
0.030460
0.037430
0.029240
0.020452
0.054667
0.033080
0.038513
0.018412
0.017825
0.014141
0.025014
0.005347
0.031162
0.026549
0.003430
0.058827
0.010316
0.043645
0.040717
0.008828
0.029634
0.052793
0.029563
0.017263
0.024371
0.032445
0.003880
0.049791
0.021285
0.011078
0.013737
0.040514
0.016162
0.039544
0.008229
0.024794
0.013277
0.018339
0.067161
0.031810
0.012858
0.028593
0.039903
0.040091
0.024425
0.032893
0.022101
0.010339
0.044425
0.019655
0.019469
0.026346
0.033768
0.008745
0.043380
0.020187
0.028556
0.027603
0.022055
0.008386
0.064481
0.013318
0.012761
0.030774
0.021494
0.031368
0.011819
0.017880
0.011346
0.049217
0.024150
0.038316
0.009191
0.021811
0.026725
0.015142
0.032842
0.038358
0.023796
0.007134
0.037992
0.040384
0.005118
0.030538
0.051718
0.004742
0.076444
0.046540
0.012810
0.007089
0.021718
0.032283
0.016443
0.032934
0.015572
0.005898
0.001808
0.013713
0.045986
0.031671
0.021499
0.043946
0.020305
0.027993
0.040574
0.022339
0.014742
0.026604
0.007963
0.010930
0.034064
0.009519
0.038671
0.011495
0.019463
0.018757
0.015393
0.027272
0.016818
0.010662
0.004316
0.028483
0.016008
0.030305
0.037984
0.029373
0.020699
0.055014
0.033769
0.039187
0.017957
0.017800
0.013738
0.025495
0.006688
0.030345
0.025771
0.003750
0.059246
0.011041
0.043344
0.040540
0.008841
0.030780
0.052850
0.029954
0.017177
0.024528
0.032344
0.004139
0.049691
0.021360
0.011037
0.013558
0.039851
0.015611
0.038678
0.008474
0.025001
0.014179
0.018197
0.066167
0.031672
0.012975
0.027833
0.039441
0.039640
0.025000
0.032906
0.021725
0.010131
0.045604
0.019450
0.019737
0.026007
0.034642
0.008417
0.043884
0.020328
0.029259
0.027691
0.021803
0.008284
0.064803
0.013565
0.012370
0.030676
0.021192
0.031486
0.011147
0.018661
0.011710
0.049782
0.023922
0.038300
0.009345
0.021376
0.026007
0.015752
0.033021
0.038204
0.023748
0.007553
0.037378
0.039913
0.006402
0.030657
0.051819
0.004449
0.076521
0.045625
0.025103
0.038786
0.010633
0.033174
0.040898
0.003382
0.003417
0.041059
0.003144
0.011558
0.011176
0.028513
0.024510
0.024397
0.020338
0.023984
0.024073
0.022312
0.022518
0.011466
0.011084
0.007378
0.025489
0.028527
0.021605
0.002512
0.009762
0.009771
0.038996
0.000564
0.035555
0.025082
0.039659
0.062448
0.063771
0.039423
0.026024
0.016140
0.047367
0.063043
0.059035
0.037165
0.003964
0.029749
0.053226
0.055077
0.040154
0.011956
0.019386
0.063448
0.075175
0.030688
0.011934
0.009066
0.029419
0.030596
0.035726
0.025088
0.010291
0.018224
0.030825
0.003578
0.022069
0.040552
0.041055
0.023353
0.044955
0.058201
0.046419
0.058697
0.088739
0.088522
0.074879
0.074792
0.082184
0.040270
0.007194
0.007113
0.014240
0.004270
0.009006
0.009272
0.008753
0.019463
0.014290
0.019002
0.010554
0.009580
0.002921
0.002088
0.003708
0.003356
0.008792
0.011257
0.004691
0.008074
0.022815
0.011748
0.006502
0.001383
0.026324
0.019766
0.032394
0.038231
0.037456
0.032192
0.032767
0.034364
0.028484
0.027642
0.022623
0.022126
0.010493
0.002102
0.018250
0.005423
0.004027
0.002143
0.002747
0.001540
0.057348
0.049669
0.049376
0.037934
0.033468
0.010727
0.031275
0.031019
0.022532
0.016047
0.004945
0.004853
0.012341
0.011962
0.001939
0.005084
0.002075
0.003801
0.004717
0.004796
0.001288
0.016655
0.026535
0.018603
0.040407
0.006163
0.005674
0.038742
0.001791
0.013911
0.016756
0.062763
0.056651
0.020174
0.038501
0.038998
0.025764
0.029734
0.018653
0.029953
0.008530
0.004824
0.002460
0.037006
0.004130
0.039457
0.013983
0.010188
0.061960
0.020826
0.022893
0.032645
0.052907
0.028854
0.008766
0.012012
0.055048
0.027967
0.017677
0.030499
0.018879
0.008027
0.017706
0.025968
0.014058
0.005616
0.031499
0.032519
0.029493
0.027341
0.027955
0.028926
0.029991
0.031023
0.017983
0.030981
0.041899
0.053554
0.029024
0.017815
0.019603
0.039625
0.051654
0.063836
0.054301
0.048716
0.054536
0.041563
0.037239
0.043178
0.039184
0.023614
0.030386
0.025526
0.032331
0.034139
0.011710
0.011256
0.019152
0.013483
0.005647
0.063085
