# vtk DataFile Version 2.0
Unstructured Grid Example
ASCII
DATASET UNSTRUCTURED_GRID
POINTS 749 float
0.002559 -0.000030 -0.008063 
0.502413 -0.000971 0.007767 
0.196094 0.701257 0.005649 
0.700933 0.698717 -0.005717 
0.094896 0.701314 0.012206 
0.093837 1.000778 0.017094 
1.594864 1.002029 -0.008158 
1.594342 0.701767 -0.015335 
0.917256 0.499237 0.003954 
1.002544 0.699642 0.004779 
0.643015 0.498214 -0.001430 
0.657200 0.548130 -0.002480 
0.902180 0.549173 0.003097 
1.052223 0.699650 0.006136 
-0.002546 -0.000065 0.172016 
0.497600 0.000928 0.187772 
0.203834 0.698675 0.185638 
0.699122 0.701300 0.174286 
0.104940 0.698709 0.192234 
0.106088 0.999232 0.197059 
1.605626 0.997590 0.171878 
1.605619 0.697966 0.164679 
0.912645 0.501128 0.183959 
0.997569 0.700530 0.184718 
0.642558 0.501769 0.178660 
0.656919 0.551823 0.177553 
0.897723 0.551190 0.183086 
1.047902 0.700501 0.186166 
1.602866 0.848806 0.123068 
1.597318 0.850880 0.033040 
1.600130 0.894807 0.079252 
1.600085 0.804857 0.076991 
0.302367 0.849865 0.137177 
0.297518 0.850067 0.047186 
0.299909 0.895046 0.092206 
0.299918 0.805010 0.091829 
0.127578 -0.000099 -0.004370 
0.252565 -0.000364 -0.000192 
0.377544 -0.000667 0.003973 
0.027443 0.087491 -0.007204 
0.052309 0.175027 -0.006222 
0.077251 0.262619 -0.005200 
0.101968 0.350253 -0.003990 
0.126103 0.438062 -0.001977 
0.149753 0.525852 0.000433 
0.173439 0.613748 0.003092 
0.144993 0.701403 0.009184 
0.094130 0.851073 0.015300 
0.201197 1.000482 0.009261 
0.309011 0.999621 0.001105 
0.417670 0.998787 -0.006036 
0.526687 0.998230 -0.010317 
0.635939 0.998258 -0.011385 
0.745242 0.998479 -0.009008 
0.853553 0.999160 -0.003860 
0.960681 1.000101 0.002425 
1.066582 1.000952 0.007748 
1.171221 1.001430 0.009856 
1.276417 1.001941 0.008863 
1.381679 1.002247 0.004835 
1.487903 1.002195 -0.001385 
1.594446 0.851936 -0.011995 
0.852977 0.699423 -0.001336 
0.619357 0.414772 0.000956 
0.596215 0.331570 0.003456 
0.572850 0.248408 0.005372 
0.549597 0.165414 0.006628 
0.526098 0.082260 0.007438 
0.780643 0.498867 0.000391 
0.984804 0.599455 0.004997 
0.952293 0.624438 0.003990 
0.780184 0.548776 -0.000338 
0.678219 0.623363 -0.004561 
1.141811 0.700180 0.007230 
1.231545 0.700579 0.005752 
1.321461 0.701031 0.002422 
1.411861 0.701394 -0.003074 
1.502866 0.701693 -0.009244 
0.122478 -0.000014 0.175631 
0.247409 0.000267 0.179726 
0.372521 0.000582 0.183963 
0.022540 0.087404 0.172761 
0.047629 0.174870 0.173771 
0.072737 0.262263 0.174782 
0.097952 0.349599 0.175986 
0.123632 0.436820 0.177955 
0.150153 0.524001 0.180359 
0.176444 0.611148 0.183116 
0.154809 0.698552 0.189078 
0.105783 0.848966 0.195321 
0.213032 0.999564 0.189238 
0.319501 1.000358 0.181050 
0.425071 1.001167 0.174037 
0.530400 1.001729 0.169557 
0.635448 1.001739 0.168553 
0.740484 1.001564 0.170990 
0.846493 1.000892 0.176130 
0.953701 1.000006 0.182405 
1.062149 0.999185 0.187723 
1.171834 0.998678 0.189931 
1.280943 0.998145 0.188872 
1.389997 0.997910 0.184751 
1.498245 0.997735 0.178582 
1.605703 0.847745 0.168047 
0.847093 0.700679 0.178624 
0.618586 0.418571 0.180949 
0.594256 0.335165 0.183404 
0.569869 0.251545 0.185408 
0.545612 0.167927 0.186611 
0.521558 0.084352 0.187433 
0.777200 0.501321 0.180365 
0.980159 0.600802 0.185018 
0.947710 0.625871 0.183999 
0.776830 0.551415 0.179625 
0.678699 0.626626 0.175509 
1.141656 0.699906 0.187177 
1.235196 0.699583 0.185861 
1.328636 0.699081 0.182323 
1.421533 0.698597 0.176983 
1.513811 0.698132 0.170770 
-0.000055 -0.000057 0.081972 
0.499993 -0.000015 0.097760 
0.199901 0.699967 0.095434 
0.699924 0.699978 0.083876 
0.099821 0.700066 0.102301 
0.100000 1.000028 0.106995 
1.600304 0.999789 0.081892 
1.600005 0.699852 0.074723 
0.914959 0.500164 0.093925 
1.000033 0.700080 0.094814 
0.642827 0.500000 0.088557 
0.657084 0.550014 0.087395 
0.899946 0.550162 0.093013 
1.050025 0.700130 0.096295 
1.602012 0.817341 0.109141 
1.598170 0.818719 0.045466 
1.598206 0.882384 0.047080 
1.602053 0.880899 0.110740 
0.298190 0.881839 0.060395 
0.298376 0.818211 0.060186 
0.301529 0.818040 0.123856 
0.301710 0.881759 0.124028 
1.509795 0.848949 0.129043 
1.416641 0.849096 0.134925 
1.323092 0.849249 0.139833 
1.229400 0.849456 0.142591 
1.135668 0.849723 0.143154 
1.042056 0.849965 0.141045 
0.948578 0.850219 0.137161 
0.855720 0.850402 0.132721 
0.763224 0.850531 0.128767 
0.670903 0.850697 0.126328 
0.578918 0.850803 0.126142 
0.486905 0.850586 0.128000 
0.394662 0.850282 0.131981 
1.507274 0.894934 0.085128 
1.414390 0.895044 0.091047 
1.321546 0.895054 0.095742 
1.228701 0.895084 0.098433 
1.135829 0.895075 0.098622 
1.042943 0.895066 0.096354 
0.950062 0.895057 0.092151 
0.857173 0.895044 0.087310 
0.764296 0.895020 0.083060 
0.671453 0.895002 0.080574 
0.578586 0.894963 0.080110 
0.485671 0.894958 0.082294 
0.392896 0.894948 0.086586 
1.504690 0.850912 0.039060 
1.412104 0.850940 0.044937 
1.319974 0.850828 0.049802 
1.227846 0.850684 0.052585 
1.135935 0.850453 0.053157 
1.043832 0.850161 0.051054 
0.951543 0.849921 0.047141 
0.858614 0.849723 0.042699 
0.765317 0.849494 0.038808 
0.671907 0.849251 0.036340 
0.578121 0.849249 0.035951 
0.484576 0.849371 0.038000 
0.390928 0.849697 0.041935 
1.507236 0.804900 0.083050 
1.414320 0.805052 0.089167 
1.321477 0.805028 0.094210 
1.228748 0.805059 0.097258 
1.135656 0.805103 0.097993 
1.042937 0.805095 0.096015 
0.950063 0.805074 0.092417 
0.857193 0.805061 0.088027 
0.764307 0.805051 0.084403 
0.671442 0.805003 0.082071 
0.578577 0.805047 0.081789 
0.485634 0.805007 0.083593 
0.392837 0.804980 0.087317 
1.602631 0.950639 0.120977 
1.602538 0.747181 0.116063 
1.597512 0.748900 0.035420 
1.597854 0.952015 0.041110 
1.595700 0.785875 0.006570 
1.604391 0.782810 0.146539 
1.595849 0.915852 0.008809 
1.604369 0.913678 0.149714 
1.596530 0.820150 0.019804 
1.603633 0.817568 0.134817 
1.596539 0.881439 0.020332 
1.603626 0.879476 0.136360 
1.602037 0.911562 0.110882 
1.602009 0.786579 0.107879 
1.598119 0.787936 0.045335 
1.598103 0.912112 0.045757 
1.600037 0.759045 0.075987 
1.600149 0.939659 0.079611 
0.345649 0.832750 0.117339 
1.557297 0.832048 0.108249 
0.717436 0.827790 0.105284 
0.810156 0.827821 0.108383 
0.902924 0.827656 0.112554 
0.625001 0.827883 0.103899 
1.182427 0.827326 0.120345 
0.439995 0.827733 0.107708 
0.996002 0.827601 0.116747 
0.532542 0.827841 0.104733 
1.089202 0.827461 0.119662 
1.275600 0.827239 0.118572 
1.368902 0.827069 0.114605 
1.462009 0.827030 0.109036 
0.333771 0.817094 0.102321 
1.567487 0.816744 0.091542 
0.345797 0.867262 0.117301 
1.557299 0.866489 0.109120 
0.810127 0.872795 0.107944 
0.717540 0.872883 0.104705 
0.902797 0.872669 0.112319 
0.625034 0.872909 0.103143 
0.995953 0.872497 0.116751 
0.532559 0.872862 0.103905 
0.439988 0.872770 0.107217 
1.182406 0.872241 0.120837 
1.089178 0.872386 0.119864 
1.275702 0.872250 0.119489 
1.368851 0.872068 0.115441 
1.461981 0.871972 0.110030 
0.333910 0.882876 0.102306 
1.567498 0.882447 0.093186 
0.299959 0.849944 0.092351 
0.300339 0.832141 0.099530 
0.299017 0.842625 0.074345 
0.300968 0.856889 0.110340 
0.299548 0.868029 0.085511 
1.554067 0.833232 0.052753 
0.343562 0.822262 0.072341 
0.718077 0.827125 0.060363 
0.811335 0.827286 0.063400 
0.904320 0.827482 0.067617 
0.624993 0.827065 0.058785 
1.089500 0.827748 0.074645 
0.531707 0.827175 0.059697 
0.996991 0.827542 0.071721 
1.181935 0.827806 0.075378 
0.438476 0.827248 0.062569 
1.274498 0.827842 0.073483 
1.366966 0.827969 0.069577 
1.459602 0.827917 0.064055 
1.566036 0.817259 0.067308 
0.331706 0.837877 0.057382 
0.343007 0.867197 0.061811 
1.554638 0.878030 0.064394 
0.718187 0.872137 0.059699 
0.811333 0.872270 0.062945 
0.904442 0.872434 0.067326 
0.625072 0.872082 0.058131 
1.182091 0.872902 0.075808 
0.997060 0.872626 0.071750 
1.089576 0.872767 0.074867 
0.531732 0.872113 0.058891 
0.438470 0.872219 0.062098 
1.274530 0.872916 0.074341 
1.367084 0.873007 0.070446 
1.459642 0.873003 0.065040 
0.332719 0.882851 0.078075 
1.564790 0.862755 0.047653 
0.418276 0.594629 -0.001940 
0.347179 0.361315 0.000375 
0.377875 0.792856 -0.001938 
0.527756 0.715615 -0.005735 
0.539067 0.554542 -0.002557 
1.038560 0.848848 0.005621 
0.319414 0.681365 0.000629 
0.438670 0.471248 -0.000399 
0.294274 0.494658 -0.000212 
0.249962 0.188570 -0.000795 
0.619561 0.834442 -0.008431 
0.261364 0.775464 0.003755 
0.428793 0.698625 -0.003142 
1.174415 0.848321 0.008089 
0.404868 0.207552 0.002965 
1.362598 0.848428 0.002451 
0.508074 0.837626 -0.007270 
0.494640 0.634976 -0.003874 
0.478537 0.340378 0.002188 
0.591839 0.633633 -0.004664 
0.313202 0.588188 -0.000014 
0.235521 0.360984 -0.001201 
0.771042 0.831383 -0.005701 
0.546911 0.456880 -0.000306 
1.100468 0.796714 0.007115 
0.722531 0.526149 -0.000965 
0.906844 0.905576 -0.000337 
0.939497 0.779365 0.001791 
0.837731 0.526881 0.001520 
0.314007 0.886985 0.001077 
0.260803 0.639838 0.001902 
0.463471 0.527305 -0.001457 
0.373412 0.510796 -0.000388 
0.394968 0.885684 -0.003479 
0.595783 0.538674 -0.002369 
1.023400 0.768752 0.005174 
0.627662 0.745865 -0.006819 
0.993438 0.648782 0.004896 
0.176970 0.106648 -0.002963 
0.183963 0.798965 0.008575 
1.273939 0.792280 0.005492 
1.461152 0.794168 -0.004561 
0.180561 0.282228 -0.002653 
0.346488 0.114552 0.002313 
0.382642 0.647942 -0.001574 
0.940030 0.571111 0.004008 
0.212271 0.450535 -0.000561 
0.475453 0.757294 -0.005228 
0.261529 0.709501 0.003125 
0.363382 0.439124 0.000029 
0.193674 0.896480 0.009178 
0.291849 0.291103 -0.000047 
1.102910 0.912877 0.007950 
1.269009 0.893630 0.007124 
0.259979 0.564298 0.000644 
1.454111 0.906188 -0.001624 
0.571211 0.907129 -0.009643 
0.460332 0.146444 0.004967 
0.371595 0.720711 -0.001285 
0.485337 0.246576 0.004037 
0.442471 0.065994 0.005455 
0.291048 0.413818 -0.000292 
0.693032 0.902420 -0.009038 
0.619268 0.585908 -0.003512 
0.591162 0.484442 -0.000988 
0.541027 0.380754 0.001698 
0.554587 0.779107 -0.007330 
0.480247 0.577388 -0.002577 
0.697966 0.790489 -0.007086 
[...]
POINT_DATA 749
SCALARS u float 1
LOOKUP_TABLE default
0.045522
0.044078
0.037570
0.031926
0.071544
0.097870
0.053013
0.088471
0.024837
0.029196
0.012338
0.016716
0.020861
0.035168
0.045098
0.044054
0.037376
0.031887
0.071337
0.097557
0.054726
0.088495
0.025521
0.028706
0.012049
0.016465
0.021610
0.035154
0.066346
0.066130
0.057850
0.070011
0.017324
0.017799
0.011884
0.009851
0.027308
0.013977
0.025638
0.040935
0.035713
0.030500
0.023979
0.012552
0.005313
0.019814
0.056792
0.088374
0.059279
0.029071
0.038818
0.057235
0.061992
0.050806
0.028590
0.023087
0.043787
0.053602
0.050182
0.035982
0.030095
0.071888
0.017832
0.011542
0.021532
0.031108
0.037827
0.042273
0.011255
0.029756
0.024951
0.011046
0.026144
0.038927
0.032562
0.023736
0.031603
0.058508
0.027145
0.014091
0.025347
0.041148
0.035875
0.030635
0.024347
0.013736
0.005771
0.019862
0.055829
0.088298
0.058998
0.028692
0.038119
0.057804
0.062321
0.050841
0.028511
0.022597
0.043341
0.053957
0.050416
0.036211
0.032362
0.072294
0.017690
0.011716
0.021460
0.031409
0.037794
0.042152
0.011870
0.030109
0.025235
0.012244
0.025709
0.038622
0.033170
0.023737
0.031724
0.058625
0.043202
0.041759
0.029244
0.032956
0.066202
0.091456
0.043679
0.082215
0.021143
0.025911
0.007765
0.014024
0.016238
0.033884
0.069228
0.069184
0.060584
0.060839
0.015389
0.013889
0.013723
0.015033
0.035542
0.013583
0.027801
0.041195
0.043905
0.032814
0.013969
0.014619
0.034143
0.046904
0.047900
0.038342
0.018987
0.026228
0.005669
0.030907
0.045390
0.046401
0.034196
0.011584
0.014479
0.037346
0.050724
0.053220
0.041468
0.018375
0.034929
0.012789
0.027365
0.041170
0.043977
0.033006
0.014208
0.014775
0.033888
0.046843
0.048921
0.038312
0.019559
0.037405
0.004495
0.022654
0.039070
0.043017
0.032373
0.013018
0.010627
0.030120
0.042669
0.044184
0.034481
0.014438
0.052598
0.078095
0.078012
0.051849
0.076401
0.076577
0.060444
0.060788
0.071172
0.071343
0.063310
0.063478
0.056716
0.072966
0.072881
0.056763
0.075410
0.051917
0.006955
0.052095
0.038930
0.022423
0.003598
0.046330
0.042252
0.026100
0.022976
0.041891
0.038545
0.032863
0.012858
0.020061
0.002532
0.057163
0.007776
0.047531
0.024772
0.042034
0.004376
0.050402
0.023016
0.046346
0.028718
0.044907
0.039634
0.037825
0.016865
0.015204
0.003198
0.048372
0.011844
0.011703
0.012929
0.013172
0.012296
0.051813
0.005133
0.038474
0.022347
0.004080
0.046956
0.038490
0.042093
0.022918
0.042442
0.026923
0.032360
0.012423
0.019613
0.056966
0.008921
0.007987
0.045275
0.042062
0.024767
0.004789
0.050466
0.044758
0.023131
0.039698
0.046426
0.029438
0.036970
0.016616
0.014692
0.003534
0.052059
0.013062
0.006730
0.022423
0.032348
0.016626
0.033041
0.017444
0.006036
0.002292
0.013319
0.046033
0.032055
0.021124
0.043924
0.019546
0.027158
0.041077
0.022837
0.015109
0.026609
0.008331
0.010712
0.033643
0.009823
0.038734
0.010961
0.019892
0.019089
0.014484
0.027762
0.017070
0.010733
0.004118
0.029528
0.015948
0.030460
0.037430
0.029240
0.020452
0.054667
0.033080
0.038513
0.018412
0.017825
0.014141
0.025014
0.005347
0.031162
0.026549
0.003430
0.058827
0.010316
0.043645
0.040717
0.008828
0.029634
0.052793
0.029563
0.017263
0.024371
0.032445
0.003880
0.049791
0.021285
0.011078
0.013737
0.040514
0.016162
0.039544
0.008229
0.024794
0.013277
0.018339
0.067161
0.031810
0.012858
0.028593
0.039903
0.040091
0.024425
0.032893
0.022101
0.010339
0.044425
0.019655
0.019469
0.026346
0.033768
0.008745
0.043380
0.020187
0.028556
0.027603
0.022055
0.008386
0.064481
0.013318
0.012761
0.030774
0.021494
0.031368
0.011819
0.017880
0.011346
0.049217
0.024150
0.038316
0.009191
0.021811
0.026725
0.015142
0.032842
0.038358
0.023796
0.007134
0.037992
0.040384
0.005118
0.030538
0.051718
0.004742
0.076444
0.046540
0.012810
0.007089
0.021718
0.032283
0.016443
0.032934
0.015572
0.005898
0.001808
0.013713
0.045986
0.031671
0.021499
0.043946
0.020305
0.027993
0.040574
0.022339
0.014742
0.026604
0.007963
0.010930
0.034064
0.009519
0.038671
0.011495
0.019463
0.018757
0.015393
0.027272
0.016818
0.010662
0.004316
0.028483
0.016008
0.030305
0.037984
0.029373
0.020699
0.055014
0.033769
0.039187
0.017957
0.017800
0.013738
0.025495
0.006688
0.030345
0.025771
0.003750
0.059246
0.011041
0.043344
0.040540
0.008841
0.030780
0.052850
0.029954
0.017177
0.024528
0.032344
0.004139
0.049691
0.021360
0.011037
0.013558
0.039851
0.015611
0.038678
0.008474
0.025001
0.014179
0.018197
0.066167
0.031672
0.012975
0.027833
0.039441
0.039640
0.025000
0.032906
0.021725
0.010131
0.045604
0.019450
0.019737
0.026007
0.034642
0.008417
0.043884
0.020328
0.029259
0.027691
0.021803
0.008284
0.064803
0.013565
0.012370
0.030676
0.021192
0.031486
0.011147
0.018661
0.011710
0.049782
0.023922
0.038300
0.009345
0.021376
0.026007
0.015752
0.033021
0.038204
0.023748
0.007553
0.037378
0.039913
0.006402
0.030657
0.051819
0.004449
0.076521
0.045625
0.025103
0.038786
0.010633
0.033174
0.040898
0.003382
0.003417
0.041059
0.003144
0.011558
0.011176
0.028513
0.024510
0.024397
0.020338
0.023984
0.024073
0.022312
0.022518
0.011466
0.011084
0.007378
0.025489
0.028527
0.021605
0.002512
0.009762
0.009771
0.038996
0.000564
0.035555
0.025082
0.039659
0.062448
0.063771
0.039423
0.026024
0.016140
0.047367
0.063043
0.059035
0.037165
0.003964
0.029749
0.053226
0.055077
0.040154
0.011956
0.019386
0.063448
0.075175
0.030688
0.011934
0.009066
0.029419
0.030596
0.035726
0.025088
0.010291
0.018224
0.030825
0.003578
0.022069
0.040552
0.041055
0.023353
0.044955
0.058201
0.046419
0.058697
0.088739
0.088522
0.074879
0.074792
0.082184
0.040270
0.007194
0.007113
0.014240
0.004270
0.009006
0.009272
0.008753
0.019463
0.014290
0.019002
0.010554
0.009580
0.002921
0.002088
0.003708
0.003356
0.008792
0.011257
0.004691
0.008074
0.022815
0.011748
0.006502
0.001383
0.026324
0.019766
0.032394
0.038231
0.037456
0.032192
0.032767
0.034364
0.028484
0.027642
0.022623
0.022126
0.010493
0.002102
0.018250
0.005423
0.004027
0.002143
0.002747
0.001540
0.057348
0.049669
0.049376
0.037934
0.033468
0.010727
0.031275
0.031019
0.022532
0.016047
0.004945
0.004853
0.012341
0.011962
0.001939
0.005084
0.002075
0.003801
0.004717
0.004796
0.001288
0.016655
0.026535
0.018603
0.040407
0.006163
0.005674
0.038742
0.001791
0.013911
0.016756
0.062763
0.056651
0.020174
0.038501
0.038998
0.025764
0.029734
0.018653
0.029953
0.008530
0.004824
0.002460
0.037006
0.004130
0.039457
0.013983
0.010188
0.061960
0.020826
0.022893
0.032645
0.052907
0.028854
0.008766
0.012012
0.055048
0.027967
0.017677
0.030499
0.018879
0.008027
0.017706
0.025968
0.014058
0.005616
0.031499
0.032519
0.029493
0.027341
0.027955
0.028926
0.029991
0.031023
0.017983
0.030981
0.041899
0.053554
0.029024
0.017815
0.019603
0.039625
0.051654
0.063836
0.054301
0.048716
0.054536
0.041563
0.037239
0.043178
0.039184
0.023614
0.030386
0.025526
0.032331
0.034139
0.011710
0.011256
0.019152
0.013483
0.005647
0.063085
