# vtk DataFile Version 2.0
Unstructured Grid Example
ASCII
DATASET UNSTRUCTURED_GRID
POINTS 749 float
0.000654 -0.000008 -0.002062 
0.500617 -0.000248 0.001987 
0.199001 0.700321 0.001445 
0.700239 0.699672 -0.001462 
0.098695 0.700336 0.003122 
0.098424 1.000199 0.004372 
1.598686 1.000519 -0.002086 
1.598553 0.700452 -0.003922 
0.915577 0.499805 0.001011 
1.000651 0.699908 0.001222 
0.642898 0.499543 -0.000366 
0.657157 0.549522 -0.000634 
0.900558 0.549788 0.000792 
1.050569 0.699910 0.001569 
-0.000651 -0.000017 0.177958 
0.499386 0.000237 0.181988 
0.200981 0.699661 0.181442 
0.699776 0.700332 0.178539 
0.101263 0.699670 0.183129 
0.101557 0.999804 0.184363 
1.601439 0.999384 0.177923 
1.601437 0.699480 0.176082 
0.914398 0.500289 0.181012 
0.999378 0.700136 0.181207 
0.642781 0.500452 0.179657 
0.657086 0.550466 0.179374 
0.899418 0.550304 0.180789 
1.049464 0.700128 0.181577 
1.600733 0.849695 0.131948 
1.599314 0.850225 0.041941 
1.600033 0.894951 0.087251 
1.600022 0.804963 0.086673 
0.300606 0.849965 0.135557 
0.299365 0.850017 0.045559 
0.299977 0.895012 0.090564 
0.299979 0.805002 0.090468 
0.125659 -0.000025 -0.001118 
0.250656 -0.000093 -0.000049 
0.375651 -0.000170 0.001016 
0.025625 0.087498 -0.001842 
0.050591 0.175007 -0.001591 
0.075576 0.262531 -0.001330 
0.100503 0.350065 -0.001020 
0.125282 0.437644 -0.000506 
0.149937 0.525218 0.000111 
0.174601 0.612819 0.000791 
0.148719 0.700359 0.002349 
0.098499 0.850275 0.003913 
0.205622 1.000123 0.002369 
0.312937 0.999903 0.000283 
0.420467 0.999690 -0.001544 
0.528089 0.999547 -0.002639 
0.635772 0.999554 -0.002912 
0.743467 0.999611 -0.002304 
0.850909 0.999785 -0.000987 
0.958048 1.000026 0.000620 
1.064873 1.000243 0.001982 
1.171376 1.000366 0.002521 
1.278020 1.000497 0.002267 
1.384682 1.000575 0.001237 
1.491590 1.000561 -0.000354 
1.598580 0.850495 -0.003068 
0.850761 0.699852 -0.000342 
0.619127 0.416182 0.000245 
0.595488 0.332882 0.000884 
0.571792 0.249593 0.001374 
0.548125 0.166346 0.001695 
0.524395 0.083059 0.001902 
0.779367 0.499710 0.000100 
0.983089 0.599861 0.001278 
0.950586 0.624856 0.001021 
0.778984 0.549687 -0.000086 
0.678481 0.624581 -0.001166 
1.141704 0.700046 0.001849 
1.232876 0.700148 0.001471 
1.324095 0.700264 0.000619 
1.415438 0.700357 -0.000786 
1.506935 0.700433 -0.002364 
0.124355 -0.000004 0.178883 
0.249337 0.000068 0.179930 
0.374366 0.000149 0.181014 
0.024371 0.087475 0.178148 
0.049394 0.174967 0.178407 
0.074421 0.262439 0.178665 
0.099476 0.349897 0.178973 
0.124650 0.437326 0.179477 
0.150039 0.524745 0.180092 
0.175369 0.612154 0.180797 
0.151230 0.699630 0.182322 
0.101479 0.849736 0.183918 
0.208649 0.999888 0.182363 
0.315620 1.000092 0.180268 
0.422360 1.000298 0.178475 
0.529039 1.000442 0.177329 
0.635646 1.000445 0.177072 
0.742250 1.000400 0.177696 
0.849103 1.000228 0.179010 
0.956263 1.000002 0.180615 
1.063739 0.999792 0.181975 
1.171532 0.999662 0.182540 
1.279178 0.999526 0.182269 
1.386810 0.999466 0.181215 
1.494235 0.999421 0.179637 
1.601458 0.849423 0.176943 
0.849256 0.700174 0.179648 
0.618929 0.417154 0.180243 
0.594987 0.333802 0.180871 
0.571030 0.250395 0.181383 
0.547106 0.166989 0.181691 
0.523234 0.083594 0.181901 
0.778487 0.500338 0.180093 
0.981901 0.600205 0.181283 
0.949414 0.625223 0.181023 
0.778126 0.550362 0.179904 
0.678604 0.625416 0.178852 
1.141664 0.699976 0.181835 
1.233810 0.699893 0.181499 
1.325930 0.699765 0.180594 
1.417911 0.699641 0.179228 
1.509734 0.699522 0.177639 
-0.000014 -0.000015 0.087947 
0.499998 -0.000004 0.091985 
0.199975 0.699992 0.091390 
0.699981 0.699994 0.088434 
0.099954 0.700017 0.093146 
0.100000 1.000007 0.094347 
1.600078 0.999946 0.087926 
1.600001 0.699962 0.086093 
0.914989 0.500042 0.091004 
1.000008 0.700021 0.091231 
0.642849 0.500000 0.089631 
0.657128 0.550004 0.089334 
0.899986 0.550041 0.090771 
1.050006 0.700033 0.091610 
1.600514 0.817965 0.118577 
1.599532 0.818318 0.054928 
1.599541 0.881964 0.055341 
1.600525 0.881584 0.118986 
0.299537 0.881825 0.058747 
0.299585 0.818188 0.058693 
0.300391 0.818144 0.122341 
0.300437 0.881804 0.122385 
1.507821 0.849731 0.133476 
1.414888 0.849769 0.134981 
1.321854 0.849808 0.136236 
1.228783 0.849861 0.136941 
1.135702 0.849929 0.137086 
1.042652 0.849991 0.136546 
0.949636 0.850056 0.135553 
0.856779 0.850103 0.134417 
0.764014 0.850136 0.133406 
0.671294 0.850178 0.132782 
0.578660 0.850205 0.132734 
0.486019 0.850150 0.133210 
0.393319 0.850072 0.134228 
1.507176 0.894983 0.088754 
1.414312 0.895011 0.090268 
1.321459 0.895014 0.091469 
1.228605 0.895022 0.092157 
1.135744 0.895019 0.092205 
1.042879 0.895017 0.091625 
0.950016 0.895015 0.090550 
0.857151 0.895011 0.089312 
0.764288 0.895005 0.088225 
0.671435 0.895000 0.087589 
0.578575 0.894990 0.087471 
0.485703 0.894989 0.088029 
0.392867 0.894987 0.089127 
1.506515 0.850233 0.043481 
1.413728 0.850240 0.044984 
1.321057 0.850212 0.046228 
1.228386 0.850175 0.046940 
1.135771 0.850116 0.047086 
1.043106 0.850041 0.046548 
0.950395 0.849980 0.045548 
0.857519 0.849929 0.044411 
0.764550 0.849871 0.043416 
0.671551 0.849809 0.042785 
0.578456 0.849808 0.042686 
0.485423 0.849839 0.043210 
0.392364 0.849922 0.044216 
1.507167 0.804974 0.088223 
1.414295 0.805013 0.089787 
1.321441 0.805007 0.091077 
1.228617 0.805015 0.091856 
1.135699 0.805026 0.092044 
1.042878 0.805024 0.091538 
0.950016 0.805019 0.090618 
0.857156 0.805016 0.089495 
0.764291 0.805013 0.088569 
0.671432 0.805001 0.087972 
0.578573 0.805012 0.087900 
0.485694 0.805002 0.088361 
0.392852 0.804995 0.089314 
1.600673 0.951515 0.127927 
1.600649 0.747927 0.126671 
1.599364 0.748367 0.046036 
1.599451 0.951453 0.048078 
1.598900 0.784847 0.016588 
1.601123 0.784063 0.156534 
1.598938 0.914738 0.016496 
1.601118 0.915039 0.157347 
1.599112 0.819309 0.029265 
1.600929 0.818649 0.144244 
1.599115 0.880555 0.028654 
1.600927 0.880595 0.144639 
1.600521 0.912253 0.118547 
1.600514 0.787193 0.117840 
1.599519 0.787540 0.055309 
1.599515 0.911657 0.053466 
1.600009 0.759156 0.086416 
1.600038 0.939799 0.086789 
0.344737 0.832750 0.117645 
1.556016 0.832571 0.115320 
0.717749 0.827574 0.110654 
0.810571 0.827582 0.111447 
0.903406 0.827540 0.112514 
0.625000 0.827598 0.110300 
1.182216 0.827455 0.114506 
0.439467 0.827559 0.111274 
0.996319 0.827526 0.113586 
0.532245 0.827587 0.110514 
1.089264 0.827490 0.114332 
1.275153 0.827433 0.114053 
1.368124 0.827390 0.113038 
1.461045 0.827380 0.111614 
0.333453 0.817117 0.102175 
1.566868 0.817028 0.099418 
0.344775 0.867253 0.117635 
1.556017 0.867055 0.115543 
0.810564 0.872576 0.111335 
0.717776 0.872598 0.110506 
0.903373 0.872543 0.112454 
0.625009 0.872605 0.110107 
0.996307 0.872499 0.113587 
0.532249 0.872593 0.110302 
0.439465 0.872569 0.111149 
1.182210 0.872434 0.114632 
1.089258 0.872471 0.114383 
1.275180 0.872436 0.114288 
1.368111 0.872390 0.113252 
1.461038 0.872365 0.111868 
0.333489 0.882875 0.102171 
1.566871 0.882765 0.099839 
0.299990 0.849957 0.090713 
0.300087 0.832185 0.097931 
0.299748 0.842612 0.072714 
0.300247 0.856945 0.108668 
0.299884 0.868007 0.083844 
1.555190 0.832873 0.059821 
0.344203 0.822253 0.072646 
0.717913 0.827404 0.065675 
0.810873 0.827445 0.066451 
0.903763 0.827495 0.067530 
0.624998 0.827389 0.065271 
1.089341 0.827563 0.069327 
0.532031 0.827417 0.065504 
0.996572 0.827511 0.068580 
1.182090 0.827578 0.069515 
0.439079 0.827436 0.066239 
1.274872 0.827587 0.069030 
1.367629 0.827620 0.068031 
1.460430 0.827607 0.066619 
1.566497 0.817159 0.075172 
0.332925 0.837876 0.057191 
0.344061 0.867236 0.062138 
1.555336 0.877822 0.070613 
0.717941 0.872407 0.065505 
0.810873 0.872441 0.066335 
0.903794 0.872483 0.067455 
0.625018 0.872393 0.065104 
1.182130 0.872603 0.069625 
0.996590 0.872532 0.068587 
1.089360 0.872568 0.069384 
0.532038 0.872401 0.065298 
0.439077 0.872428 0.066118 
1.274880 0.872606 0.069250 
1.367659 0.872630 0.068254 
1.460440 0.872629 0.066871 
0.333184 0.882869 0.077926 
1.566179 0.862286 0.054703 
0.419246 0.595118 -0.000496 
0.346419 0.361774 0.000096 
0.380607 0.793125 -0.000496 
0.528693 0.716572 -0.001467 
0.539449 0.555775 -0.000654 
1.036723 0.848738 0.001438 
0.321766 0.681100 0.000161 
0.438765 0.472023 -0.000102 
0.294497 0.494498 -0.000054 
0.248237 0.188828 -0.000203 
0.619464 0.835516 -0.002156 
0.264766 0.774943 0.000960 
0.430495 0.699037 -0.000804 
1.174666 0.847548 0.002069 
0.403450 0.208207 0.000758 
1.365626 0.847159 0.000627 
0.509517 0.838585 -0.001859 
0.495572 0.635868 -0.000991 
0.477882 0.341512 0.000560 
0.592186 0.634806 -0.001193 
0.314339 0.588006 -0.000003 
0.234343 0.360884 -0.000307 
0.769306 0.832180 -0.001458 
0.546849 0.458218 -0.000078 
1.099718 0.796406 0.001820 
0.721795 0.527263 -0.000247 
0.904121 0.905871 -0.000086 
0.937232 0.779615 0.000458 
0.836244 0.527604 0.000389 
0.317761 0.887082 0.000275 
0.262522 0.639053 0.000486 
0.463903 0.528222 -0.000373 
0.373818 0.511072 -0.000099 
0.398084 0.886201 -0.000890 
0.595906 0.539994 -0.000606 
1.021696 0.768874 0.001323 
0.627633 0.746885 -0.001744 
0.991720 0.649141 0.001252 
0.175199 0.106693 -0.000758 
0.187932 0.798136 0.002193 
1.275814 0.791438 0.001405 
1.465034 0.792835 -0.001167 
0.178953 0.282257 -0.000678 
0.344771 0.114961 0.000592 
0.384188 0.648195 -0.000402 
0.938347 0.571598 0.001025 
0.211923 0.450034 -0.000144 
0.477146 0.758047 -0.001337 
0.264276 0.708777 0.000799 
0.363205 0.439564 0.000007 
0.198063 0.895953 0.002347 
0.290442 0.291337 -0.000012 
1.101911 0.912222 0.002033 
1.270512 0.892474 0.001822 
0.260918 0.563683 0.000165 
1.457714 0.904655 -0.000415 
0.571909 0.908274 -0.002466 
0.458817 0.147312 0.001270 
0.373770 0.720946 -0.000329 
0.484200 0.247597 0.001032 
0.440684 0.066672 0.001395 
0.290559 0.413785 -0.000075 
0.692005 0.903479 -0.002311 
0.619466 0.587248 -0.000898 
0.591140 0.485787 -0.000253 
0.540635 0.382117 0.000434 
0.555354 0.780131 -0.001875 
0.480924 0.578314 -0.000659 
0.696875 0.791439 -0.001812 
[...]
POINT_DATA 749
SCALARS u float 1
LOOKUP_TABLE default
0.045522
0.044078
0.037570
0.031926
0.071544
0.097870
0.053013
0.088471
0.024837
0.029196
0.012338
0.016716
0.020861
0.035168
0.045098
0.044054
0.037376
0.031887
0.071337
0.097557
0.054726
0.088495
0.025521
0.028706
0.012049
0.016465
0.021610
0.035154
0.066346
0.066130
0.057850
0.070011
0.017324
0.017799
0.011884
0.009851
0.027308
0.013977
0.025638
0.040935
0.035713
0.030500
0.023979
0.012552
0.005313
0.019814
0.056792
0.088374
0.059279
0.029071
0.038818
0.057235
0.061992
0.050806
0.028590
0.023087
0.043787
0.053602
0.050182
0.035982
0.030095
0.071888
0.017832
0.011542
0.021532
0.031108
0.037827
0.042273
0.011255
0.029756
0.024951
0.011046
0.026144
0.038927
0.032562
0.023736
0.031603
0.058508
0.027145
0.014091
0.025347
0.041148
0.035875
0.030635
0.024347
0.013736
0.005771
0.019862
0.055829
0.088298
0.058998
0.028692
0.038119
0.057804
0.062321
0.050841
0.028511
0.022597
0.043341
0.053957
0.050416
0.036211
0.032362
0.072294
0.017690
0.011716
0.021460
0.031409
0.037794
0.042152
0.011870
0.030109
0.025235
0.012244
0.025709
0.038622
0.033170
0.023737
0.031724
0.058625
0.043202
0.041759
0.029244
0.032956
0.066202
0.091456
0.043679
0.082215
0.021143
0.025911
0.007765
0.014024
0.016238
0.033884
0.069228
0.069184
0.060584
0.060839
0.015389
0.013889
0.013723
0.015033
0.035542
0.013583
0.027801
0.041195
0.043905
0.032814
0.013969
0.014619
0.034143
0.046904
0.047900
0.038342
0.018987
0.026228
0.005669
0.030907
0.045390
0.046401
0.034196
0.011584
0.014479
0.037346
0.050724
0.053220
0.041468
0.018375
0.034929
0.012789
0.027365
0.041170
0.043977
0.033006
0.014208
0.014775
0.033888
0.046843
0.048921
0.038312
0.019559
0.037405
0.004495
0.022654
0.039070
0.043017
0.032373
0.013018
0.010627
0.030120
0.042669
0.044184
0.034481
0.014438
0.052598
0.078095
0.078012
0.051849
0.076401
0.076577
0.060444
0.060788
0.071172
0.071343
0.063310
0.063478
0.056716
0.072966
0.072881
0.056763
0.075410
0.051917
0.006955
0.052095
0.038930
0.022423
0.003598
0.046330
0.042252
0.026100
0.022976
0.041891
0.038545
0.032863
0.012858
0.020061
0.002532
0.057163
0.007776
0.047531
0.024772
0.042034
0.004376
0.050402
0.023016
0.046346
0.028718
0.044907
0.039634
0.037825
0.016865
0.015204
0.003198
0.048372
0.011844
0.011703
0.012929
0.013172
0.012296
0.051813
0.005133
0.038474
0.022347
0.004080
0.046956
0.038490
0.042093
0.022918
0.042442
0.026923
0.032360
0.012423
0.019613
0.056966
0.008921
0.007987
0.045275
0.042062
0.024767
0.004789
0.050466
0.044758
0.023131
0.039698
0.046426
0.029438
0.036970
0.016616
0.014692
0.003534
0.052059
0.013062
0.006730
0.022423
0.032348
0.016626
0.033041
0.017444
0.006036
0.002292
0.013319
0.046033
0.032055
0.021124
0.043924
0.019546
0.027158
0.041077
0.022837
0.015109
0.026609
0.008331
0.010712
0.033643
0.009823
0.038734
0.010961
0.019892
0.019089
0.014484
0.027762
0.017070
0.010733
0.004118
0.029528
0.015948
0.030460
0.037430
0.029240
0.020452
0.054667
0.033080
0.038513
0.018412
0.017825
0.014141
0.025014
0.005347
0.031162
0.026549
0.003430
0.058827
0.010316
0.043645
0.040717
0.008828
0.029634
0.052793
0.029563
0.017263
0.024371
0.032445
0.003880
0.049791
0.021285
0.011078
0.013737
0.040514
0.016162
0.039544
0.008229
0.024794
0.013277
0.018339
0.067161
0.031810
0.012858
0.028593
0.039903
0.040091
0.024425
0.032893
0.022101
0.010339
0.044425
0.019655
0.019469
0.026346
0.033768
0.008745
0.043380
0.020187
0.028556
0.027603
0.022055
0.008386
0.064481
0.013318
0.012761
0.030774
0.021494
0.031368
0.011819
0.017880
0.011346
0.049217
0.024150
0.038316
0.009191
0.021811
0.026725
0.015142
0.032842
0.038358
0.023796
0.007134
0.037992
0.040384
0.005118
0.030538
0.051718
0.004742
0.076444
0.046540
0.012810
0.007089
0.021718
0.032283
0.016443
0.032934
0.015572
0.005898
0.001808
0.013713
0.045986
0.031671
0.021499
0.043946
0.020305
0.027993
0.040574
0.022339
0.014742
0.026604
0.007963
0.010930
0.034064
0.009519
0.038671
0.011495
0.019463
0.018757
0.015393
0.027272
0.016818
0.010662
0.004316
0.028483
0.016008
0.030305
0.037984
0.029373
0.020699
0.055014
0.033769
0.039187
0.017957
0.017800
0.013738
0.025495
0.006688
0.030345
0.025771
0.003750
0.059246
0.011041
0.043344
0.040540
0.008841
0.030780
0.052850
0.029954
0.017177
0.024528
0.032344
0.004139
0.049691
0.021360
0.011037
0.013558
0.039851
0.015611
0.038678
0.008474
0.025001
0.014179
0.018197
0.066167
0.031672
0.012975
0.027833
0.039441
0.039640
0.025000
0.032906
0.021725
0.010131
0.045604
0.019450
0.019737
0.026007
0.034642
0.008417
0.043884
0.020328
0.029259
0.027691
0.021803
0.008284
0.064803
0.013565
0.012370
0.030676
0.021192
0.031486
0.011147
0.018661
0.011710
0.049782
0.023922
0.038300
0.009345
0.021376
0.026007
0.015752
0.033021
0.038204
0.023748
0.007553
0.037378
0.039913
0.006402
0.030657
0.051819
0.004449
0.076521
0.045625
0.025103
0.038786
0.010633
0.033174
0.040898
0.003382
0.003417
0.041059
0.003144
0.011558
0.011176
0.028513
0.024510
0.024397
0.020338
0.023984
0.024073
0.022312
0.022518
0.011466
0.011084
0.007378
0.025489
0.028527
0.021605
0.002512
0.009762
0.009771
0.038996
0.000564
0.035555
0.025082
0.039659
0.062448
0.063771
0.039423
0.026024
0.016140
0.047367
0.063043
0.059035
0.037165
0.003964
0.029749
0.053226
0.055077
0.040154
0.011956
0.019386
0.063448
0.075175
0.030688
0.011934
0.009066
0.029419
0.030596
0.035726
0.025088
0.010291
0.018224
0.030825
0.003578
0.022069
0.040552
0.041055
0.023353
0.044955
0.058201
0.046419
0.058697
0.088739
0.088522
0.074879
0.074792
0.082184
0.040270
0.007194
0.007113
0.014240
0.004270
0.009006
0.009272
0.008753
0.019463
0.014290
0.019002
0.010554
0.009580
0.002921
0.002088
0.003708
0.003356
0.008792
0.011257
0.004691
0.008074
0.022815
0.011748
0.006502
0.001383
0.026324
0.019766
0.032394
0.038231
0.037456
0.032192
0.032767
0.034364
0.028484
0.027642
0.022623
0.022126
0.010493
0.002102
0.018250
0.005423
0.004027
0.002143
0.002747
0.001540
0.057348
0.049669
0.049376
0.037934
0.033468
0.010727
0.031275
0.031019
0.022532
0.016047
0.004945
0.004853
0.012341
0.011962
0.001939
0.005084
0.002075
0.003801
0.004717
0.004796
0.001288
0.016655
0.026535
0.018603
0.040407
0.006163
0.005674
0.038742
0.001791
0.013911
0.016756
0.062763
0.056651
0.020174
0.038501
0.038998
0.025764
0.029734
0.018653
0.029953
0.008530
0.004824
0.002460
0.037006
0.004130
0.039457
0.013983
0.010188
0.061960
0.020826
0.022893
0.032645
0.052907
0.028854
0.008766
0.012012
0.055048
0.027967
0.017677
0.030499
0.018879
0.008027
0.017706
0.025968
0.014058
0.005616
0.031499
0.032519
0.029493
0.027341
0.027955
0.028926
0.029991
0.031023
0.017983
0.030981
0.041899
0.053554
0.029024
0.017815
0.019603
0.039625
0.051654
0.063836
0.054301
0.048716
0.054536
0.041563
0.037239
0.043178
0.039184
0.023614
0.030386
0.025526
0.032331
0.034139
0.011710
0.011256
0.019152
0.013483
0.005647
0.063085
