# vtk DataFile Version 2.0
Unstructured Grid Example
ASCII
DATASET UNSTRUCTURED_GRID
POINTS 749 float
-0.002559 0.000030 0.008063 
0.497587 0.000971 -0.007767 
0.203906 0.698743 -0.005649 
0.699067 0.701283 0.005717 
0.105104 0.698686 -0.012206 
0.106163 0.999222 -0.017094 
1.605136 0.997971 0.008158 
1.605658 0.698233 0.015335 
0.912744 0.500763 -0.003954 
0.997456 0.700358 -0.004779 
0.642699 0.501786 0.001430 
0.657086 0.551870 0.002480 
0.897820 0.550827 -0.003097 
1.047777 0.700350 -0.006136 
0.002546 0.000065 0.187984 
0.502400 -0.000928 0.172228 
0.196166 0.701325 0.174362 
0.700878 0.698700 0.185714 
0.095060 0.701291 0.167766 
0.093912 1.000768 0.162941 
1.594374 1.002410 0.188122 
1.594381 0.702034 0.195321 
0.917355 0.498872 0.176041 
1.002431 0.699470 0.175282 
0.643156 0.498231 0.181340 
0.657367 0.548177 0.182447 
0.902277 0.548810 0.176914 
1.052098 0.699499 0.173834 
1.597134 0.851194 0.146932 
1.602682 0.849120 0.056960 
1.599870 0.895193 0.100748 
1.599915 0.805143 0.103009 
0.297633 0.850135 0.132823 
0.302482 0.849933 0.042814 
0.300091 0.894954 0.087794 
0.300082 0.804990 0.088171 
0.122422 0.000099 0.004370 
0.247435 0.000364 0.000192 
0.372456 0.000667 -0.003973 
0.022557 0.087509 0.007204 
0.047691 0.174973 0.006222 
0.072749 0.262381 0.005200 
0.098032 0.349747 0.003990 
0.123897 0.436938 0.001977 
0.150247 0.524148 -0.000433 
0.176561 0.611252 -0.003092 
0.155007 0.698597 -0.009184 
0.105870 0.848927 -0.015300 
0.213089 0.999518 -0.009261 
0.319560 1.000379 -0.001105 
0.425187 1.001213 0.006036 
0.530456 1.001770 0.010317 
0.635490 1.001742 0.011385 
0.740472 1.001521 0.009008 
0.846447 1.000840 0.003860 
0.953605 0.999899 -0.002425 
1.061990 0.999048 -0.007748 
1.171636 0.998570 -0.009856 
1.280726 0.998059 -0.008863 
1.389749 0.997753 -0.004835 
1.497811 0.997805 0.001385 
1.605554 0.848064 0.011995 
0.847023 0.700577 0.001336 
0.618739 0.418562 -0.000956 
0.594261 0.335097 -0.003456 
0.570008 0.251592 -0.005372 
0.545641 0.167920 -0.006628 
0.521521 0.084406 -0.007438 
0.777214 0.501133 -0.000391 
0.980196 0.600545 -0.004997 
0.947707 0.625562 -0.003990 
0.776959 0.551224 0.000338 
0.678924 0.626637 0.004561 
1.141522 0.699820 -0.007230 
1.235121 0.699421 -0.005752 
1.328539 0.698969 -0.002422 
1.421472 0.698606 0.003074 
1.513800 0.698307 0.009244 
0.127522 0.000014 0.184369 
0.252591 -0.000267 0.180274 
0.377479 -0.000582 0.176037 
0.027460 0.087596 0.187239 
0.052371 0.175130 0.186229 
0.077263 0.262737 0.185218 
0.102048 0.350401 0.184014 
0.126368 0.438180 0.182045 
0.149847 0.525999 0.179641 
0.173556 0.613852 0.176884 
0.145191 0.701448 0.170922 
0.094217 0.851034 0.164679 
0.201254 1.000436 0.170762 
0.309070 0.999642 0.178950 
0.417787 0.998833 0.185963 
0.526742 0.998271 0.190443 
0.635980 0.998261 0.191447 
0.745230 0.998436 0.189010 
0.853507 0.999108 0.183870 
0.960585 0.999994 0.177595 
1.066423 1.000815 0.172277 
1.171023 1.001322 0.170069 
1.276200 1.001855 0.171128 
1.381431 1.002090 0.175249 
1.487469 1.002265 0.181418 
1.594297 0.852255 0.191953 
0.852907 0.699321 0.181376 
0.619510 0.414762 0.179051 
0.596220 0.331502 0.176596 
0.572988 0.248455 0.174592 
0.549626 0.165407 0.173389 
0.526061 0.082315 0.172567 
0.780657 0.498679 0.179635 
0.984841 0.599198 0.174982 
0.952290 0.624129 0.176001 
0.780313 0.548585 0.180375 
0.678444 0.623374 0.184491 
1.141677 0.700094 0.172823 
1.231470 0.700417 0.174139 
1.321364 0.700919 0.177677 
1.411800 0.701403 0.183017 
1.502856 0.701868 0.189230 
0.000055 0.000057 0.098028 
0.500007 0.000015 0.082240 
0.200099 0.700033 0.084566 
0.700076 0.700022 0.096124 
0.100179 0.699934 0.077699 
0.100000 0.999972 0.073005 
1.599696 1.000211 0.098108 
1.599995 0.700148 0.105277 
0.915041 0.499836 0.086075 
0.999967 0.699920 0.085186 
0.642888 0.500000 0.091443 
0.657202 0.549986 0.092605 
0.900054 0.549838 0.086987 
1.049975 0.699870 0.083705 
1.597988 0.819020 0.134499 
1.601830 0.817641 0.070894 
1.601794 0.881256 0.069280 
1.597947 0.882741 0.132899 
0.301810 0.881801 0.055966 
0.301624 0.818149 0.056174 
0.298471 0.818321 0.119784 
0.298290 0.881880 0.119612 
1.504490 0.851051 0.140957 
1.411930 0.850904 0.135075 
1.319765 0.850751 0.130167 
1.227743 0.850544 0.127409 
1.135761 0.850277 0.126846 
1.043658 0.850035 0.128955 
0.951422 0.849781 0.132839 
0.858566 0.849598 0.137279 
0.765348 0.849469 0.141233 
0.671954 0.849303 0.143672 
0.578225 0.849197 0.143858 
0.484523 0.849414 0.142000 
0.391052 0.849718 0.138019 
1.507012 0.895066 0.094872 
1.414182 0.894956 0.088953 
1.321311 0.894946 0.084258 
1.228442 0.894916 0.081567 
1.135600 0.894925 0.081378 
1.042771 0.894934 0.083646 
0.949938 0.894943 0.087849 
0.857113 0.894956 0.092690 
0.764275 0.894980 0.096940 
0.671404 0.894998 0.099426 
0.578557 0.895037 0.099890 
0.485758 0.895042 0.097706 
0.392818 0.895052 0.093414 
1.509596 0.849088 0.050940 
1.416468 0.849060 0.045063 
1.322883 0.849172 0.040198 
1.229297 0.849316 0.037415 
1.135493 0.849547 0.036843 
1.041882 0.849839 0.038946 
0.948457 0.850079 0.042859 
0.855671 0.850277 0.047301 
0.763254 0.850506 0.051192 
0.670950 0.850749 0.053660 
0.579022 0.850751 0.054049 
0.486852 0.850629 0.052000 
0.394787 0.850303 0.048065 
1.507050 0.805100 0.096950 
1.414251 0.804948 0.090833 
1.321380 0.804972 0.085790 
1.228395 0.804941 0.082742 
1.135772 0.804897 0.082007 
1.042777 0.804905 0.083985 
0.949937 0.804926 0.087583 
0.857093 0.804939 0.091973 
0.764264 0.804949 0.095597 
0.671415 0.804997 0.097929 
0.578566 0.804953 0.098211 
0.485795 0.804993 0.096407 
0.392878 0.805020 0.092683 
1.597369 0.952994 0.139656 
1.597462 0.749186 0.144570 
1.602488 0.747467 0.063948 
1.602146 0.950506 0.059835 
1.604300 0.783112 0.033491 
1.595609 0.786177 0.173401 
1.604151 0.912860 0.029467 
1.595631 0.917335 0.170225 
1.603470 0.817891 0.045229 
1.596367 0.820473 0.160151 
1.603461 0.879063 0.042695 
1.596374 0.882483 0.158608 
1.597963 0.913418 0.131480 
1.597991 0.788228 0.134648 
1.601881 0.786871 0.072138 
1.601897 0.910889 0.066473 
1.599963 0.759341 0.104013 
1.599851 0.940037 0.098901 
0.343198 0.832750 0.118161 
1.553856 0.833452 0.127251 
0.718278 0.827210 0.119716 
0.811273 0.827179 0.116617 
0.904219 0.827344 0.112446 
0.624999 0.827117 0.121101 
1.181858 0.827674 0.104655 
0.438576 0.827267 0.117292 
0.996855 0.827399 0.108253 
0.531744 0.827159 0.120267 
1.089369 0.827539 0.105338 
1.274400 0.827761 0.106428 
1.366812 0.827931 0.110395 
1.459420 0.827970 0.115964 
0.332917 0.817156 0.101929 
1.565825 0.817506 0.112708 
0.343050 0.867238 0.118199 
1.553854 0.868011 0.126380 
0.811302 0.872205 0.117056 
0.718174 0.872117 0.120295 
0.904346 0.872331 0.112681 
0.624966 0.872091 0.121857 
0.996904 0.872503 0.108249 
0.531727 0.872138 0.121095 
0.438583 0.872230 0.117783 
1.181880 0.872759 0.104163 
1.089393 0.872614 0.105136 
1.274298 0.872750 0.105511 
1.366863 0.872932 0.109559 
1.459447 0.873028 0.114970 
0.332778 0.882874 0.101944 
1.565813 0.883303 0.111064 
0.300041 0.849980 0.087949 
0.299661 0.832260 0.095235 
0.300983 0.842591 0.069961 
0.299032 0.857039 0.105846 
0.300452 0.867971 0.081032 
1.557086 0.832268 0.071747 
0.345286 0.822238 0.073159 
0.717638 0.827875 0.074637 
0.810093 0.827714 0.071600 
0.902823 0.827518 0.067383 
0.625007 0.827935 0.076215 
1.089071 0.827252 0.060355 
0.532578 0.827825 0.075303 
0.995866 0.827458 0.063279 
1.182351 0.827194 0.059622 
0.440096 0.827752 0.072431 
1.275502 0.827158 0.061517 
1.368749 0.827031 0.065423 
1.461827 0.827083 0.070945 
1.567276 0.816991 0.088442 
0.334982 0.837873 0.056868 
0.345841 0.867303 0.062689 
1.556515 0.877470 0.081106 
0.717527 0.872863 0.075301 
0.810095 0.872730 0.072055 
0.902701 0.872566 0.067674 
0.624928 0.872918 0.076869 
1.182195 0.872098 0.059192 
0.995797 0.872374 0.063250 
1.088995 0.872233 0.060133 
0.532554 0.872887 0.076109 
0.440101 0.872781 0.072902 
1.275470 0.872084 0.060659 
1.368630 0.871993 0.064554 
1.461786 0.871997 0.069960 
0.333969 0.882899 0.077675 
1.568521 0.861495 0.066597 
0.420882 0.595943 0.001940 
0.345136 0.362548 -0.000375 
0.385217 0.793580 0.001938 
0.530275 0.718187 0.005735 
0.540093 0.557856 0.002557 
1.033625 0.848552 -0.005621 
0.325734 0.680654 -0.000629 
0.438926 0.473329 0.000399 
0.294875 0.494229 0.000212 
0.245326 0.189263 0.000795 
0.619299 0.837329 0.008431 
0.270506 0.774065 -0.003755 
0.433366 0.699732 0.003142 
1.175091 0.846245 -0.008089 
0.401058 0.209313 -0.002965 
1.370735 0.845017 -0.002451 
0.511951 0.840203 0.007270 
0.497144 0.637374 0.003874 
0.476778 0.343426 -0.002188 
0.592771 0.636784 0.004664 
0.316259 0.587698 0.000014 
0.232357 0.360714 0.001201 
0.766378 0.833525 0.005701 
0.546745 0.460475 0.000306 
1.098452 0.795885 -0.007115 
0.720553 0.529142 0.000965 
0.899525 0.906370 0.000337 
0.933410 0.780036 -0.001791 
0.833736 0.528824 -0.001520 
0.324095 0.887246 -0.001077 
0.265421 0.637728 -0.001902 
0.464632 0.529769 0.001457 
0.374503 0.511537 0.000388 
0.403341 0.887073 0.003479 
0.596115 0.542221 0.002369 
1.018821 0.769080 -0.005174 
0.627584 0.748608 0.006819 
0.988822 0.649746 -0.004896 
0.172211 0.106770 0.002963 
0.194628 0.796737 -0.008575 
1.278978 0.790017 -0.005492 
1.471584 0.790587 0.004561 
0.176239 0.282306 0.002653 
0.341875 0.115649 -0.002313 
0.386796 0.648623 0.001574 
0.935506 0.572420 -0.004008 
0.211336 0.449188 0.000561 
0.480003 0.759317 0.005228 
0.268912 0.707556 -0.003125 
0.362908 0.440306 -0.000029 
0.205468 0.895065 -0.009178 
0.288068 0.291732 0.000047 
1.100225 0.911118 -0.007950 
1.273048 0.890522 -0.007124 
0.262503 0.562644 -0.000644 
1.463794 0.902067 0.001624 
0.573087 0.910208 0.009643 
0.456260 0.148778 -0.004967 
0.377440 0.721343 0.001285 
0.482281 0.249319 -0.004037 
0.437668 0.067816 -0.005455 
0.289733 0.413729 0.000292 
0.690270 0.905267 0.009038 
0.619799 0.589509 0.003512 
0.591103 0.488054 0.000988 
0.539974 0.384418 -0.001698 
0.556646 0.781857 0.007330 
0.482068 0.579878 0.002577 
0.695033 0.793044 0.007086 
0.420027 0.390038 -0.000885 
[...]
POINT_DATA 749
SCALARS u float 1
LOOKUP_TABLE default
0.045522
0.044078
0.037570
0.031926
0.071544
0.097870
0.053013
0.088471
0.024837
0.029196
0.012338
0.016716
0.020861
0.035168
0.045098
0.044054
0.037376
0.031887
0.071337
0.097557
0.054726
0.088495
0.025521
0.028706
0.012049
0.016465
0.021610
0.035154
0.066346
0.066130
0.057850
0.070011
0.017324
0.017799
0.011884
0.009851
0.027308
0.013977
0.025638
0.040935
0.035713
0.030500
0.023979
0.012552
0.005313
0.019814
0.056792
0.088374
0.059279
0.029071
0.038818
0.057235
0.061992
0.050806
0.028590
0.023087
0.043787
0.053602
0.050182
0.035982
0.030095
0.071888
0.017832
0.011542
0.021532
0.031108
0.037827
0.042273
0.011255
0.029756
0.024951
0.011046
0.026144
0.038927
0.032562
0.023736
0.031603
0.058508
0.027145
0.014091
0.025347
0.041148
0.035875
0.030635
0.024347
0.013736
0.005771
0.019862
0.055829
0.088298
0.058998
0.028692
0.038119
0.057804
0.062321
0.050841
0.028511
0.022597
0.043341
0.053957
0.050416
0.036211
0.032362
0.072294
0.017690
0.011716
0.021460
0.031409
0.037794
0.042152
0.011870
0.030109
0.025235
0.012244
0.025709
0.038622
0.033170
0.023737
0.031724
0.058625
0.043202
0.041759
0.029244
0.032956
0.066202
0.091456
0.043679
0.082215
0.021143
0.025911
0.007765
0.014024
0.016238
0.033884
0.069228
0.069184
0.060584
0.060839
0.015389
0.013889
0.013723
0.015033
0.035542
0.013583
0.027801
0.041195
0.043905
0.032814
0.013969
0.014619
0.034143
0.046904
0.047900
0.038342
0.018987
0.026228
0.005669
0.030907
0.045390
0.046401
0.034196
0.011584
0.014479
0.037346
0.050724
0.053220
0.041468
0.018375
0.034929
0.012789
0.027365
0.041170
0.043977
0.033006
0.014208
0.014775
0.033888
0.046843
0.048921
0.038312
0.019559
0.037405
0.004495
0.022654
0.039070
0.043017
0.032373
0.013018
0.010627
0.030120
0.042669
0.044184
0.034481
0.014438
0.052598
0.078095
0.078012
0.051849
0.076401
0.076577
0.060444
0.060788
0.071172
0.071343
0.063310
0.063478
0.056716
0.072966
0.072881
0.056763
0.075410
0.051917
0.006955
0.052095
0.038930
0.022423
0.003598
0.046330
0.042252
0.026100
0.022976
0.041891
0.038545
0.032863
0.012858
0.020061
0.002532
0.057163
0.007776
0.047531
0.024772
0.042034
0.004376
0.050402
0.023016
0.046346
0.028718
0.044907
0.039634
0.037825
0.016865
0.015204
0.003198
0.048372
0.011844
0.011703
0.012929
0.013172
0.012296
0.051813
0.005133
0.038474
0.022347
0.004080
0.046956
0.038490
0.042093
0.022918
0.042442
0.026923
0.032360
0.012423
0.019613
0.056966
0.008921
0.007987
0.045275
0.042062
0.024767
0.004789
0.050466
0.044758
0.023131
0.039698
0.046426
0.029438
0.036970
0.016616
0.014692
0.003534
0.052059
0.013062
0.006730
0.022423
0.032348
0.016626
0.033041
0.017444
0.006036
0.002292
0.013319
0.046033
0.032055
0.021124
0.043924
0.019546
0.027158
0.041077
0.022837
0.015109
0.026609
0.008331
0.010712
0.033643
0.009823
0.038734
0.010961
0.019892
0.019089
0.014484
0.027762
0.017070
0.010733
0.004118
0.029528
0.015948
0.030460
0.037430
0.029240
0.020452
0.054667
0.033080
0.038513
0.018412
0.017825
0.014141
0.025014
0.005347
0.031162
0.026549
0.003430
0.058827
0.010316
0.043645
0.040717
0.008828
0.029634
0.052793
0.029563
0.017263
0.024371
0.032445
0.003880
0.049791
0.021285
0.011078
0.013737
0.040514
0.016162
0.039544
0.008229
0.024794
0.013277
0.018339
0.067161
0.031810
0.012858
0.028593
0.039903
0.040091
0.024425
0.032893
0.022101
0.010339
0.044425
0.019655
0.019469
0.026346
0.033768
0.008745
0.043380
0.020187
0.028556
0.027603
0.022055
0.008386
0.064481
0.013318
0.012761
0.030774
0.021494
0.031368
0.011819
0.017880
0.011346
0.049217
0.024150
0.038316
0.009191
0.021811
0.026725
0.015142
0.032842
0.038358
0.023796
0.007134
0.037992
0.040384
0.005118
0.030538
0.051718
0.004742
0.076444
0.046540
0.012810
0.007089
0.021718
0.032283
0.016443
0.032934
0.015572
0.005898
0.001808
0.013713
0.045986
0.031671
0.021499
0.043946
0.020305
0.027993
0.040574
0.022339
0.014742
0.026604
0.007963
0.010930
0.034064
0.009519
0.038671
0.011495
0.019463
0.018757
0.015393
0.027272
0.016818
0.010662
0.004316
0.028483
0.016008
0.030305
0.037984
0.029373
0.020699
0.055014
0.033769
0.039187
0.017957
0.017800
0.013738
0.025495
0.006688
0.030345
0.025771
0.003750
0.059246
0.011041
0.043344
0.040540
0.008841
0.030780
0.052850
0.029954
0.017177
0.024528
0.032344
0.004139
0.049691
0.021360
0.011037
0.013558
0.039851
0.015611
0.038678
0.008474
0.025001
0.014179
0.018197
0.066167
0.031672
0.012975
0.027833
0.039441
0.039640
0.025000
0.032906
0.021725
0.010131
0.045604
0.019450
0.019737
0.026007
0.034642
0.008417
0.043884
0.020328
0.029259
0.027691
0.021803
0.008284
0.064803
0.013565
0.012370
0.030676
0.021192
0.031486
0.011147
0.018661
0.011710
0.049782
0.023922
0.038300
0.009345
0.021376
0.026007
0.015752
0.033021
0.038204
0.023748
0.007553
0.037378
0.039913
0.006402
0.030657
0.051819
0.004449
0.076521
0.045625
0.025103
0.038786
0.010633
0.033174
0.040898
0.003382
0.003417
0.041059
0.003144
0.011558
0.011176
0.028513
0.024510
0.024397
0.020338
0.023984
0.024073
0.022312
0.022518
0.011466
0.011084
0.007378
0.025489
0.028527
0.021605
0.002512
0.009762
0.009771
0.038996
0.000564
0.035555
0.025082
0.039659
0.062448
0.063771
0.039423
0.026024
0.016140
0.047367
0.063043
0.059035
0.037165
0.003964
0.029749
0.053226
0.055077
0.040154
0.011956
0.019386
0.063448
0.075175
0.030688
0.011934
0.009066
0.029419
0.030596
0.035726
0.025088
0.010291
0.018224
0.030825
0.003578
0.022069
0.040552
0.041055
0.023353
0.044955
0.058201
0.046419
0.058697
0.088739
0.088522
0.074879
0.074792
0.082184
0.040270
0.007194
0.007113
0.014240
0.004270
0.009006
0.009272
0.008753
0.019463
0.014290
0.019002
0.010554
0.009580
0.002921
0.002088
0.003708
0.003356
0.008792
0.011257
0.004691
0.008074
0.022815
0.011748
0.006502
0.001383
0.026324
0.019766
0.032394
0.038231
0.037456
0.032192
0.032767
0.034364
0.028484
0.027642
0.022623
0.022126
0.010493
0.002102
0.018250
0.005423
0.004027
0.002143
0.002747
0.001540
0.057348
0.049669
0.049376
0.037934
0.033468
0.010727
0.031275
0.031019
0.022532
0.016047
0.004945
0.004853
0.012341
0.011962
0.001939
0.005084
0.002075
0.003801
0.004717
0.004796
0.001288
0.016655
0.026535
0.018603
0.040407
0.006163
0.005674
0.038742
0.001791
0.013911
0.016756
0.062763
0.056651
0.020174
0.038501
0.038998
0.025764
0.029734
0.018653
0.029953
0.008530
0.004824
0.002460
0.037006
0.004130
0.039457
0.013983
0.010188
0.061960
0.020826
0.022893
0.032645
0.052907
0.028854
0.008766
0.012012
0.055048
0.027967
0.017677
0.030499
0.018879
0.008027
0.017706
0.025968
0.014058
0.005616
0.031499
0.032519
0.029493
0.027341
0.027955
0.028926
0.029991
0.031023
0.017983
0.030981
0.041899
0.053554
0.029024
0.017815
0.019603
0.039625
0.051654
0.063836
0.054301
0.048716
0.054536
0.041563
0.037239
0.043178
0.039184
0.023614
0.030386
0.025526
0.032331
0.034139
0.011710
0.011256
0.019152
0.013483
0.005647
0.063085
