# vtk DataFile Version 2.0
Unstructured Grid Example
ASCII
DATASET UNSTRUCTURED_GRID
POINTS 749 float
0.008444 -0.015744 0.000408 
0.506220 0.001074 -0.000385 
0.200509 0.708668 0.000959 
0.702213 0.693468 0.000415 
0.100189 0.719901 0.000098 
0.121401 1.021138 0.000337 
1.600068 0.991501 0.000800 
1.586178 0.691459 -0.000577 
0.913036 0.503937 0.001920 
0.999942 0.703671 -0.000263 
0.639356 0.495616 0.000324 
0.653738 0.545417 0.000215 
0.897241 0.553529 0.001477 
1.049317 0.704207 -0.000251 
0.008607 -0.015571 0.180392 
0.506459 0.001114 0.179794 
0.200013 0.708824 0.178550 
0.702200 0.693774 0.180073 
0.100353 0.719461 0.179399 
0.121597 1.020823 0.180483 
1.599942 0.990743 0.180708 
1.586057 0.690709 0.179570 
0.912449 0.505121 0.181632 
1.000180 0.704324 0.180867 
0.638850 0.495769 0.180503 
0.653330 0.545522 0.180556 
0.896571 0.554632 0.181222 
1.049568 0.704473 0.180670 
1.592864 0.840923 0.135151 
1.592947 0.841291 0.045136 
1.594942 0.886103 0.090333 
1.590910 0.796075 0.089944 
0.309656 0.855853 0.134980 
0.309594 0.855911 0.044992 
0.312649 0.901476 0.090070 
0.306519 0.810168 0.089965 
0.133102 -0.010961 0.000193 
0.257227 -0.006373 0.000017 
0.381510 -0.002646 -0.000258 
0.030134 0.072985 0.000515 
0.051842 0.162302 0.000526 
0.073834 0.252277 0.000550 
0.096554 0.342828 0.000731 
0.120352 0.434060 0.000928 
0.145474 0.525601 0.000918 
0.172006 0.617226 0.001269 
0.150067 0.715564 0.000213 
0.111570 0.870541 0.000236 
0.227736 1.013593 -0.000023 
0.332457 1.006459 -0.000553 
0.435971 1.000929 -0.000892 
0.539222 0.997306 -0.001140 
0.642322 0.995590 -0.001239 
0.744911 0.996430 -0.001311 
0.848545 0.999498 -0.001036 
0.953755 1.003444 -0.000685 
1.060544 1.006693 -0.000191 
1.168240 1.007798 -0.000056 
1.276808 1.006571 0.000427 
1.385182 1.002444 0.000611 
1.492856 0.997007 0.000713 
1.592972 0.841507 0.000122 
0.852912 0.697835 0.000078 
0.613829 0.414696 -0.000268 
0.590423 0.333386 -0.000689 
0.568600 0.251427 -0.000665 
0.547622 0.168562 -0.000618 
0.527034 0.085057 -0.000517 
0.777150 0.498684 0.001244 
0.980768 0.603166 0.001185 
0.948613 0.628542 0.000889 
0.774973 0.548665 0.001080 
0.677868 0.618856 0.000346 
1.137762 0.706521 -0.000974 
1.226141 0.706280 -0.001185 
1.314880 0.704214 -0.001186 
1.404372 0.700356 -0.001002 
1.494828 0.695904 -0.000767 
0.133321 -0.010876 0.180282 
0.257479 -0.006313 0.180169 
0.381765 -0.002552 0.179995 
0.030280 0.073113 0.180127 
0.051988 0.162385 0.179941 
0.073975 0.252354 0.179711 
0.096681 0.342886 0.179384 
0.120331 0.434113 0.178986 
0.145306 0.525589 0.178679 
0.171878 0.617185 0.178354 
0.150127 0.714907 0.179291 
0.111679 0.870201 0.180054 
0.227877 1.013386 0.180510 
0.332586 1.006383 0.180712 
0.436034 1.000968 0.180765 
0.539259 0.997357 0.180791 
0.642361 0.995801 0.180697 
0.744943 0.996795 0.180611 
0.848555 0.999870 0.180290 
0.953733 1.003749 0.180008 
1.060474 1.006847 0.179734 
1.168118 1.007696 0.179911 
1.276582 1.006221 0.179933 
1.385112 1.001906 0.180318 
1.492743 0.996318 0.180586 
1.592824 0.840751 0.180173 
0.852924 0.698203 0.180506 
0.613601 0.414549 0.180587 
0.590382 0.333185 0.180522 
0.568746 0.251289 0.180060 
0.547798 0.168566 0.179897 
0.527261 0.085121 0.179826 
0.776508 0.499366 0.181025 
0.980012 0.604570 0.180939 
0.947916 0.630031 0.180636 
0.774143 0.549397 0.180815 
0.677629 0.619165 0.180324 
1.137917 0.706430 0.180616 
1.226208 0.706068 0.180484 
1.314870 0.703759 0.180248 
1.404221 0.699792 0.179952 
1.494751 0.695152 0.179660 
0.008532 -0.015735 0.090442 
0.506378 0.001121 0.089698 
0.200331 0.709031 0.089836 
0.702370 0.693722 0.090215 
0.099905 0.720115 0.089858 
0.121461 1.021008 0.090380 
1.600005 0.991077 0.090771 
1.586009 0.690983 0.089492 
0.912933 0.504398 0.091750 
1.000019 0.703932 0.090280 
0.638754 0.496111 0.090357 
0.653659 0.545475 0.090406 
0.896869 0.554108 0.091373 
1.049110 0.704564 0.090072 
1.591505 0.809185 0.121843 
1.591547 0.809440 0.058163 
1.594405 0.873085 0.058460 
1.594309 0.872832 0.122104 
0.311684 0.888120 0.058154 
0.307432 0.823677 0.058152 
0.307460 0.823584 0.121774 
0.311714 0.888097 0.121916 
1.500200 0.845722 0.135142 
1.407817 0.850587 0.135075 
1.315706 0.854671 0.135016 
1.223733 0.857073 0.134994 
1.131996 0.857515 0.135046 
1.040581 0.855831 0.135066 
0.949215 0.852785 0.135200 
0.857819 0.849067 0.135136 
0.766636 0.845925 0.135106 
0.675332 0.844588 0.135144 
0.584194 0.845338 0.135288 
0.492604 0.847486 0.135212 
0.401094 0.851015 0.135132 
1.502112 0.890870 0.090278 
1.409460 0.895812 0.090164 
1.317001 0.899895 0.090030 
1.224338 0.902165 0.089900 
1.132260 0.902653 0.089841 
1.040501 0.901027 0.089831 
0.948990 0.897966 0.089835 
0.857773 0.894257 0.089845 
0.766770 0.891227 0.089853 
0.675819 0.889836 0.089855 
0.585267 0.890516 0.089898 
0.494660 0.892679 0.089930 
0.403923 0.896450 0.089969 
1.500274 0.846087 0.045011 
1.407855 0.850903 0.044931 
1.315763 0.854876 0.044803 
1.223732 0.857197 0.044701 
1.132046 0.857481 0.044648 
1.040564 0.855720 0.044709 
0.949212 0.852615 0.044664 
0.857843 0.848887 0.044767 
0.766607 0.845735 0.044804 
0.675321 0.844439 0.044667 
0.584163 0.845168 0.044707 
0.492651 0.847451 0.044693 
0.401057 0.851014 0.044794 
1.498313 0.800793 0.089865 
1.406268 0.805578 0.089863 
1.314482 0.809589 0.089783 
1.223121 0.811902 0.089795 
1.131794 0.812213 0.089836 
1.040638 0.810387 0.089946 
0.949277 0.807618 0.090037 
0.857962 0.803727 0.090065 
0.766127 0.800586 0.090011 
0.674553 0.799147 0.090068 
0.582792 0.800212 0.090026 
0.490714 0.802547 0.090000 
0.398516 0.805750 0.089971 
1.597618 0.942745 0.130880 
1.588257 0.739086 0.130048 
1.588325 0.739410 0.049365 
1.597678 0.942530 0.051049 
1.590043 0.775912 0.019867 
1.589936 0.775332 0.159859 
1.595948 0.905793 0.019543 
1.595888 0.906354 0.160392 
1.591558 0.810390 0.032506 
1.591482 0.809914 0.147512 
1.594369 0.871647 0.031773 
1.594278 0.871881 0.147775 
1.595771 0.903499 0.121593 
1.590078 0.778387 0.121140 
1.590121 0.778635 0.058597 
1.595772 0.902747 0.056513 
1.588778 0.750248 0.089760 
1.597106 0.930935 0.089785 
0.352196 0.835958 0.117745 
1.547774 0.825992 0.117820 
0.720543 0.822498 0.112612 
0.811976 0.824735 0.112556 
0.903448 0.828305 0.112621 
0.629129 0.822211 0.112634 
1.177640 0.834764 0.112446 
0.445709 0.826624 0.112591 
0.994907 0.831661 0.112601 
0.537574 0.823871 0.112610 
1.086193 0.834005 0.112500 
1.269205 0.833403 0.112426 
1.361012 0.830225 0.112436 
1.453202 0.825685 0.112520 
0.340263 0.820771 0.102072 
1.558169 0.809857 0.102106 
0.354616 0.871028 0.117789 
1.549273 0.860523 0.117939 
0.812421 0.870088 0.112490 
0.721303 0.867829 0.112530 
0.903781 0.873512 0.112511 
0.630270 0.867483 0.112562 
0.994843 0.876928 0.112470 
0.539275 0.868950 0.112626 
0.448162 0.871891 0.112584 
1.178104 0.879853 0.112359 
1.086426 0.879324 0.112431 
1.270162 0.878668 0.112474 
1.362390 0.875308 0.112552 
1.454783 0.870765 0.112638 
0.344666 0.887433 0.102158 
1.561032 0.875638 0.102388 
0.309929 0.855832 0.090162 
0.308642 0.837736 0.097361 
0.309381 0.848395 0.072164 
0.310410 0.862919 0.108119 
0.311092 0.874134 0.083283 
1.547808 0.826209 0.062250 
0.351515 0.825388 0.072711 
0.720397 0.822343 0.067355 
0.811990 0.824668 0.067452 
0.903395 0.828215 0.067357 
0.629264 0.822032 0.067308 
1.086096 0.834071 0.067260 
0.537560 0.823781 0.067362 
0.994878 0.831600 0.067302 
1.177661 0.834775 0.067225 
0.445668 0.826592 0.067349 
1.269245 0.833509 0.067234 
1.361046 0.830331 0.067318 
1.453214 0.825867 0.067391 
1.558182 0.809937 0.077827 
0.341592 0.841788 0.057046 
0.354560 0.871041 0.062181 
1.549776 0.871184 0.072977 
0.721293 0.867742 0.067264 
0.812418 0.869993 0.067307 
0.903783 0.873430 0.067263 
0.630211 0.867440 0.067284 
1.178126 0.879945 0.067311 
0.994863 0.876862 0.067271 
1.086446 0.879293 0.067267 
0.539254 0.868909 0.067264 
0.448202 0.871860 0.067335 
1.270164 0.878705 0.067359 
1.362420 0.875435 0.067497 
1.454820 0.870931 0.067617 
0.344659 0.887434 0.077872 
1.560184 0.855077 0.057290 
0.415992 0.594787 0.000280 
0.340858 0.360603 0.000122 
0.386765 0.794335 -0.000092 
0.530625 0.713262 0.000025 
0.535989 0.553602 0.000097 
1.033908 0.854150 -0.000486 
0.321876 0.683811 0.000394 
0.433055 0.471666 0.000094 
0.288785 0.494768 0.000559 
0.247770 0.183577 0.000113 
0.623956 0.830429 -0.000429 
0.270719 0.781568 0.000337 
0.431516 0.698239 0.000208 
1.170647 0.855128 -0.000498 
0.401657 0.206958 -0.000224 
1.360504 0.850126 -0.000261 
0.516210 0.835516 -0.000457 
0.494251 0.633834 0.000158 
0.472399 0.341553 -0.000350 
0.591452 0.631008 0.000216 
0.310424 0.589606 0.000531 
0.229242 0.357833 0.000486 
0.770966 0.828029 -0.000329 
0.541629 0.457031 -0.000136 
1.096254 0.802933 -0.000647 
0.718550 0.524760 0.000782 
0.902669 0.906904 -0.000655 
0.936461 0.781413 -0.000397 
0.833151 0.528833 0.001400 
0.330451 0.892225 -0.000310 
0.260331 0.642873 0.000970 
0.459267 0.527414 0.000107 
0.368362 0.511320 0.000361 
0.409155 0.887221 -0.000487 
0.592525 0.536893 0.000078 
1.019738 0.773392 -0.000489 
0.630535 0.741480 0.000012 
0.990042 0.652700 0.000543 
0.178340 0.098142 0.000318 
0.196684 0.810716 0.000311 
1.269854 0.797422 -0.000786 
1.457295 0.790697 -0.000408 
0.175960 0.276222 0.000407 
0.346647 0.111850 -0.000055 
0.382687 0.648690 0.000343 
0.935589 0.575235 0.001415 
0.206397 0.448742 0.000787 
0.480874 0.755849 -0.000123 
0.265815 0.714190 0.000539 
0.357110 0.439327 0.000174 
0.213370 0.909171 0.000116 
0.286701 0.288483 0.000151 
1.098483 0.919319 -0.000341 
1.266790 0.898766 -0.000082 
0.256353 0.565550 0.000754 
1.454523 0.902982 0.000201 
0.579195 0.904128 -0.000903 
0.459065 0.147367 -0.000454 
0.375936 0.722138 0.000196 
0.480899 0.247938 -0.000448 
0.444058 0.066177 -0.000339 
0.284677 0.412652 0.000442 
0.695818 0.898478 -0.000810 
0.617133 0.583433 0.000131 
0.586685 0.483598 -0.000011 
0.534936 0.381962 -0.000411 
0.559440 0.775891 -0.000195 
0.477617 0.576966 0.000146 
0.699607 0.785870 -0.000208 
0.414822 0.388385 -0.000056 
[...]
POINT_DATA 749
SCALARS u float 1
LOOKUP_TABLE default
0.066106
0.023394
0.032317
0.025559
0.073626
0.111283
0.031580
0.060144
0.017758
0.013617
0.020791
0.021136
0.017451
0.015795
0.065831
0.024260
0.033082
0.024427
0.072039
0.110997
0.034346
0.062002
0.022007
0.016327
0.021638
0.021855
0.021794
0.016806
0.042717
0.041461
0.037880
0.047126
0.041770
0.041685
0.052570
0.030773
0.050429
0.035646
0.026014
0.056988
0.047507
0.038119
0.029560
0.021663
0.017228
0.021220
0.057582
0.087215
0.091279
0.071371
0.054009
0.040858
0.029744
0.015989
0.006863
0.018051
0.028375
0.031168
0.025218
0.009524
0.011382
0.040785
0.013427
0.020659
0.017995
0.011974
0.007375
0.013659
0.009389
0.014050
0.014452
0.014750
0.022913
0.028348
0.035595
0.040791
0.045653
0.052285
0.050667
0.036212
0.026749
0.056694
0.047242
0.037741
0.029128
0.021666
0.018171
0.021698
0.055211
0.086319
0.091319
0.071746
0.054221
0.040832
0.029197
0.014326
0.005474
0.018747
0.029007
0.030995
0.024165
0.007486
0.013798
0.043309
0.012832
0.021728
0.018077
0.011011
0.007068
0.014394
0.010002
0.019559
0.020281
0.016806
0.021899
0.027628
0.034667
0.039982
0.046048
0.053363
0.066235
0.023980
0.033435
0.024837
0.074416
0.111106
0.033134
0.061603
0.019108
0.014582
0.020954
0.021179
0.019770
0.017203
0.045770
0.044981
0.038388
0.039366
0.049107
0.034198
0.034078
0.049165
0.030173
0.024029
0.027325
0.031701
0.031016
0.023156
0.010731
0.004290
0.017409
0.024690
0.027042
0.027140
0.030705
0.024101
0.018113
0.024418
0.030787
0.031068
0.023945
0.011609
0.003650
0.016720
0.025082
0.029814
0.034189
0.041285
0.029244
0.024024
0.027663
0.032102
0.030851
0.022824
0.010180
0.004939
0.017978
0.025140
0.027359
0.027361
0.030573
0.036186
0.029742
0.030811
0.032543
0.030375
0.021552
0.010047
0.005604
0.017694
0.024547
0.023612
0.020603
0.021116
0.034760
0.054961
0.054038
0.033486
0.048630
0.050348
0.035075
0.037150
0.044661
0.046129
0.038053
0.039777
0.036787
0.049598
0.048868
0.035992
0.053096
0.034722
0.031104
0.038185
0.021006
0.011246
0.003044
0.024827
0.031617
0.023985
0.016393
0.024169
0.026647
0.030603
0.027257
0.028589
0.028932
0.041336
0.040210
0.034109
0.010930
0.021472
0.003822
0.026918
0.017399
0.029475
0.032916
0.031039
0.027371
0.028999
0.022738
0.022866
0.045150
0.033918
0.042669
0.037967
0.040774
0.044367
0.046889
0.037569
0.028686
0.021271
0.011491
0.002774
0.025663
0.027034
0.024312
0.016234
0.031626
0.023855
0.030795
0.027295
0.028400
0.041106
0.033773
0.040036
0.032422
0.021726
0.011235
0.003635
0.026881
0.031301
0.017166
0.027252
0.029482
0.033076
0.029107
0.022859
0.022567
0.045128
0.035402
0.013439
0.020218
0.019746
0.014723
0.016399
0.021794
0.010780
0.021373
0.021551
0.019761
0.026274
0.030792
0.003907
0.032806
0.007335
0.026061
0.026201
0.010592
0.019537
0.015875
0.017190
0.020728
0.018414
0.020180
0.027358
0.015646
0.004622
0.006501
0.011455
0.046229
0.018645
0.018184
0.020749
0.037172
0.018259
0.017414
0.023864
0.013483
0.034613
0.054893
0.033824
0.034166
0.024161
0.015094
0.007771
0.016034
0.020630
0.014772
0.021155
0.022382
0.071155
0.016227
0.029419
0.029301
0.019847
0.016940
0.031189
0.003423
0.006704
0.010891
0.015050
0.021600
0.025310
0.018143
0.019154
0.020771
0.022115
0.014486
0.024666
0.021859
0.033710
0.015514
0.008377
0.065650
0.020637
0.025297
0.018706
0.034768
0.032535
0.034528
0.011707
0.013384
0.018976
0.023271
0.006126
0.016199
0.008923
0.020193
0.016643
0.035446
0.016424
0.019684
0.012688
0.008959
0.021620
0.045286
0.012344
0.018378
0.023449
0.016979
0.013961
0.012964
0.012759
0.017414
0.031673
0.030981
0.048453
0.017872
0.011232
0.053813
0.022307
0.017834
0.064590
0.011526
0.019812
0.025023
0.028078
0.020084
0.044797
0.048513
0.019905
0.090309
0.026833
0.013946
0.020192
0.019068
0.014008
0.017111
0.022697
0.010481
0.021948
0.021623
0.020088
0.026119
0.030411
0.003587
0.032367
0.006582
0.025649
0.025846
0.010674
0.019307
0.015378
0.017343
0.019842
0.017299
0.021221
0.027272
0.016503
0.005206
0.008173
0.014732
0.046568
0.019163
0.019007
0.021068
0.037480
0.019154
0.018196
0.022694
0.017755
0.034908
0.054460
0.032906
0.034661
0.023765
0.015444
0.008077
0.021030
0.021010
0.014579
0.020432
0.022339
0.071147
0.016359
0.029713
0.028560
0.020267
0.018434
0.031115
0.003651
0.006433
0.010303
0.015834
0.021650
0.024212
0.018294
0.020337
0.021329
0.021198
0.015094
0.023584
0.021569
0.033948
0.015537
0.008528
0.063467
0.019568
0.025953
0.019382
0.034200
0.031831
0.034158
0.010242
0.013750
0.019831
0.025873
0.005050
0.015892
0.008451
0.019477
0.016888
0.035620
0.016601
0.018661
0.012236
0.010991
0.022170
0.047097
0.011410
0.019356
0.023117
0.016723
0.017381
0.013132
0.016611
0.018226
0.031376
0.031186
0.048512
0.018351
0.012030
0.054109
0.021793
0.017005
0.064929
0.011245
0.019460
0.024974
0.028079
0.020422
0.044749
0.047694
0.020152
0.089987
0.026200
0.014373
0.009879
0.019778
0.008197
0.017753
0.021493
0.021172
0.017875
0.013501
0.011437
0.010434
0.014994
0.021034
0.019144
0.018644
0.016443
0.014282
0.019892
0.019461
0.007847
0.008395
0.012546
0.021924
0.023264
0.021782
0.015187
0.018365
0.017994
0.031194
0.043100
0.050171
0.037510
0.024591
0.056157
0.055978
0.023761
0.081385
0.062974
0.047848
0.034918
0.021721
0.007457
0.011589
0.024323
0.030708
0.029317
0.016870
0.002799
0.019383
0.098151
0.103042
0.023558
0.043153
0.031325
0.024518
0.056440
0.052454
0.033648
0.016473
0.026151
0.042278
0.019124
0.025371
0.060213
0.060969
0.026151
0.049226
0.062893
0.052763
0.064478
0.098647
0.098475
0.077864
0.077762
0.086729
0.027771
0.012624
0.012491
0.011568
0.015401
0.017303
0.004455
0.004536
0.012414
0.011485
0.004007
0.011774
0.011782
0.021557
0.021566
0.021398
0.021103
0.013516
0.019266
0.015595
0.014024
0.015300
0.017293
0.018695
0.021249
0.010127
0.012342
0.034280
0.019657
0.019709
0.015045
0.015195
0.046989
0.032649
0.032843
0.010833
0.010942
0.013432
0.020335
0.035420
0.021045
0.018760
0.021457
0.021536
0.021200
0.064407
0.053153
0.053937
0.061793
0.047028
0.020133
0.015595
0.015715
0.015378
0.016988
0.020619
0.020465
0.016800
0.018658
0.019938
0.020195
0.019592
0.020185
0.018547
0.018519
0.021354
0.012805
0.010182
0.004166
0.027749
0.021501
0.021236
0.032564
0.021845
0.019126
0.018287
0.076691
0.064873
0.015207
0.023508
0.023985
0.006020
0.015432
0.018790
0.015761
0.017314
0.021643
0.018976
0.061883
0.021938
0.032560
0.019169
0.018777
0.076960
0.016923
0.012061
0.034115
0.046948
0.041009
0.037207
0.037537
0.057099
0.048656
0.039673
0.062145
0.063356
0.057780
0.035717
0.039299
0.025438
0.019901
0.034720
0.054539
0.054715
0.047177
0.047160
0.054833
0.062195
0.069688
0.063507
0.046981
0.054856
0.063358
0.039342
0.025662
0.044448
0.054807
0.063238
0.072011
0.069679
0.056863
0.062796
0.061982
0.047681
0.054514
0.054982
0.032308
0.039187
0.039391
0.046699
0.054353
0.019500
0.016569
0.025248
0.025666
0.057730
0.045195
