# vtk DataFile Version 2.0
Unstructured Grid Example
ASCII
DATASET UNSTRUCTURED_GRID
POINTS 749 float
0.015600 -0.029088 0.000753 
0.511492 0.001985 -0.000712 
0.200940 0.716015 0.001771 
0.704088 0.687932 0.000767 
0.100348 0.736769 0.000181 
0.139539 1.039054 0.000622 
1.600126 0.984298 0.001478 
1.574463 0.684220 -0.001067 
0.911371 0.507273 0.003548 
0.999894 0.706783 -0.000486 
0.636388 0.491900 0.000598 
0.650851 0.541533 0.000397 
0.894902 0.556520 0.002730 
1.048737 0.707773 -0.000464 
0.015901 -0.028768 0.180724 
0.511934 0.002058 0.179619 
0.200023 0.716304 0.177322 
0.704064 0.688498 0.180136 
0.100652 0.735956 0.178890 
0.139903 1.038472 0.180892 
1.599894 0.982897 0.181308 
1.574239 0.682835 0.179205 
0.910288 0.509461 0.183014 
1.000333 0.707989 0.181602 
0.635453 0.492184 0.180930 
0.650098 0.541726 0.181028 
0.893664 0.558558 0.182258 
1.049203 0.708263 0.181238 
1.586816 0.833229 0.135280 
1.586969 0.833909 0.045252 
1.590654 0.878562 0.090615 
1.583205 0.788511 0.089896 
0.317840 0.860813 0.134962 
0.317725 0.860921 0.044984 
0.323370 0.906965 0.090129 
0.312043 0.814548 0.089936 
0.139969 -0.020252 0.000356 
0.263352 -0.011775 0.000032 
0.387028 -0.004888 -0.000478 
0.034485 0.060682 0.000952 
0.053403 0.151539 0.000972 
0.072846 0.243612 0.001015 
0.093633 0.336749 0.001351 
0.116413 0.431145 0.001715 
0.141638 0.526111 0.001697 
0.169468 0.621231 0.002345 
0.150124 0.728755 0.000394 
0.121375 0.887950 0.000435 
0.245189 1.025114 -0.000043 
0.347858 1.011933 -0.001022 
0.448297 1.001716 -0.001647 
0.548249 0.995023 -0.002105 
0.647922 0.991852 -0.002289 
0.746652 0.993405 -0.002423 
0.847312 0.999073 -0.001914 
0.950883 1.006363 -0.001266 
1.057373 1.012366 -0.000352 
1.165537 1.014408 -0.000103 
1.275314 1.012140 0.000789 
1.384731 1.004515 0.001129 
1.492855 0.994470 0.001318 
1.587015 0.834308 0.000226 
0.855380 0.695999 0.000144 
0.609406 0.413027 -0.000495 
0.586342 0.333430 -0.001274 
0.566203 0.252636 -0.001228 
0.547624 0.170169 -0.001141 
0.529766 0.086517 -0.000955 
0.775642 0.497569 0.002298 
0.979301 0.605849 0.002190 
0.947437 0.631544 0.001642 
0.771923 0.547533 0.001996 
0.677272 0.613649 0.000639 
1.134453 0.712049 -0.001800 
1.220045 0.711604 -0.002190 
1.306302 0.707786 -0.002191 
1.393951 0.700658 -0.001852 
1.483381 0.692432 -0.001418 
0.140373 -0.020094 0.180521 
0.263818 -0.011664 0.180312 
0.387499 -0.004716 0.179991 
0.034756 0.060920 0.180234 
0.053672 0.151693 0.179891 
0.073107 0.243754 0.179466 
0.093868 0.336857 0.178862 
0.116374 0.431242 0.178126 
0.141327 0.526088 0.177560 
0.169232 0.621156 0.176960 
0.150234 0.727542 0.178689 
0.121577 0.887322 0.180099 
0.245451 1.024732 0.180942 
0.348096 1.011794 0.181316 
0.448412 1.001788 0.181414 
0.548317 0.995116 0.181461 
0.647994 0.992243 0.181288 
0.746712 0.994079 0.181129 
0.847330 0.999759 0.180535 
0.950842 1.006926 0.180014 
1.057244 1.012651 0.179508 
1.165312 1.014219 0.179835 
1.274895 1.011494 0.179877 
1.384601 1.003521 0.180588 
1.492647 0.993198 0.181083 
1.586742 0.832912 0.180320 
0.855401 0.696680 0.180936 
0.608984 0.412754 0.181085 
0.586266 0.333060 0.180965 
0.566473 0.252382 0.180111 
0.547949 0.170176 0.179810 
0.530186 0.086637 0.179678 
0.774456 0.498829 0.181893 
0.977903 0.608443 0.181735 
0.946150 0.634295 0.181175 
0.770390 0.548886 0.181506 
0.676831 0.614219 0.180599 
1.134740 0.711879 0.181137 
1.220169 0.711210 0.180895 
1.306284 0.706944 0.180458 
1.393672 0.699616 0.179912 
1.483240 0.691044 0.179372 
0.015764 -0.029071 0.090817 
0.511783 0.002071 0.089443 
0.200611 0.716685 0.089698 
0.704379 0.688401 0.090398 
0.099824 0.737164 0.089737 
0.139651 1.038814 0.090702 
1.600010 0.983513 0.091425 
1.574151 0.683340 0.089062 
0.911181 0.508126 0.093234 
1.000035 0.707264 0.090518 
0.635277 0.492815 0.090659 
0.650706 0.541640 0.090750 
0.894216 0.557590 0.092537 
1.048356 0.708432 0.090132 
1.584304 0.801561 0.121862 
1.584382 0.802032 0.058148 
1.589662 0.865682 0.058697 
1.589486 0.865214 0.122345 
0.321587 0.893460 0.058132 
0.313731 0.828337 0.058127 
0.313783 0.828165 0.121736 
0.321642 0.893418 0.121997 
1.494315 0.842097 0.135263 
1.402335 0.851084 0.135138 
1.310856 0.858629 0.135030 
1.219632 0.863067 0.134988 
1.128845 0.863884 0.135084 
1.038651 0.860772 0.135122 
0.948549 0.855146 0.135370 
0.858392 0.848277 0.135251 
0.768629 0.842471 0.135195 
0.678641 0.840001 0.135265 
0.588960 0.841386 0.135532 
0.498443 0.845356 0.135392 
0.408075 0.851876 0.135244 
1.497847 0.887370 0.090515 
1.405370 0.896500 0.090302 
1.313249 0.904045 0.090056 
1.220750 0.908237 0.089815 
1.129332 0.909140 0.089706 
1.038504 0.906134 0.089689 
0.948133 0.900481 0.089696 
0.858307 0.893627 0.089714 
0.768875 0.888029 0.089728 
0.679540 0.885458 0.089733 
0.590943 0.886715 0.089811 
0.502242 0.890712 0.089871 
0.413302 0.897679 0.089943 
1.494452 0.842770 0.045020 
1.402405 0.851667 0.044872 
1.310961 0.859010 0.044636 
1.219630 0.863297 0.044448 
1.128938 0.863823 0.044350 
1.038620 0.860569 0.044462 
0.948543 0.854831 0.044379 
0.858436 0.847944 0.044569 
0.768575 0.842120 0.044638 
0.678620 0.839726 0.044385 
0.588902 0.841072 0.044460 
0.498530 0.845291 0.044432 
0.408006 0.851873 0.044620 
1.490829 0.797228 0.089751 
1.399472 0.806068 0.089747 
1.308593 0.813479 0.089600 
1.218502 0.817752 0.089621 
1.128471 0.818326 0.089696 
1.038758 0.814952 0.089900 
0.948665 0.809836 0.090068 
0.858656 0.802648 0.090120 
0.767687 0.796844 0.090021 
0.677202 0.794186 0.090125 
0.586370 0.796154 0.090047 
0.494952 0.800467 0.089999 
0.403311 0.806385 0.089947 
1.595600 0.935055 0.131358 
1.578304 0.731376 0.129820 
1.578430 0.731973 0.049095 
1.595710 0.935131 0.051537 
1.581604 0.768639 0.019729 
1.581406 0.767567 0.159765 
1.592514 0.898536 0.019886 
1.592403 0.898597 0.160749 
1.584403 0.803076 0.032497 
1.584262 0.802196 0.147535 
1.589597 0.864354 0.031992 
1.589427 0.864169 0.148022 
1.592186 0.895879 0.121942 
1.581669 0.770745 0.121036 
1.581748 0.771203 0.058479 
1.592188 0.895328 0.056851 
1.579267 0.742666 0.089556 
1.594653 0.923380 0.090232 
0.358783 0.838678 0.117741 
1.541162 0.820264 0.117879 
0.722820 0.818259 0.112706 
0.813046 0.822391 0.112604 
0.903343 0.828986 0.112724 
0.632628 0.817728 0.112748 
1.173824 0.840921 0.112401 
0.451154 0.825881 0.112669 
0.993618 0.835187 0.112686 
0.542178 0.820795 0.112703 
1.083571 0.839519 0.112500 
1.264293 0.838406 0.112363 
1.355210 0.832535 0.112381 
1.446836 0.824146 0.112537 
0.346128 0.823861 0.102027 
1.550976 0.803696 0.102089 
0.363254 0.874230 0.117822 
1.543931 0.854822 0.118100 
0.813868 0.868044 0.112481 
0.724224 0.863871 0.112556 
0.903958 0.874369 0.112519 
0.634736 0.863230 0.112614 
0.993499 0.880681 0.112445 
0.545320 0.865941 0.112732 
0.455686 0.871375 0.112655 
1.174681 0.886086 0.112240 
1.084002 0.885107 0.112373 
1.266062 0.883896 0.112453 
1.357755 0.877687 0.112596 
1.449757 0.869294 0.112755 
0.354262 0.891297 0.102186 
1.556265 0.869505 0.102612 
0.318345 0.860807 0.090172 
0.315967 0.842428 0.097343 
0.317332 0.853299 0.072173 
0.319234 0.867966 0.108141 
0.320493 0.879333 0.083294 
1.541223 0.820665 0.062250 
0.357525 0.828048 0.072679 
0.722550 0.817973 0.067232 
0.813070 0.822268 0.067411 
0.903245 0.828820 0.067235 
0.632879 0.817397 0.067144 
1.083393 0.839640 0.067057 
0.542151 0.820629 0.067246 
0.993564 0.835076 0.067134 
1.173862 0.840941 0.066991 
0.451078 0.825822 0.067221 
1.264367 0.838601 0.067009 
1.355273 0.832730 0.067163 
1.446857 0.824482 0.067298 
1.551000 0.803845 0.077786 
0.348583 0.845105 0.056979 
0.363152 0.874255 0.062123 
1.544860 0.865618 0.073170 
0.724204 0.863710 0.067063 
0.813861 0.867868 0.067143 
0.903963 0.874218 0.067063 
0.634627 0.863151 0.067101 
1.174721 0.886254 0.067151 
0.993536 0.880559 0.067076 
1.084038 0.885051 0.067069 
0.545280 0.865865 0.067064 
0.455760 0.871317 0.067195 
1.266066 0.883965 0.067240 
1.357811 0.877923 0.067495 
1.449825 0.869602 0.067716 
0.354249 0.891299 0.077869 
1.554700 0.849103 0.057430 
0.412951 0.594364 0.000518 
0.336366 0.359477 0.000225 
0.391188 0.795281 -0.000169 
0.531990 0.710177 0.000047 
0.532945 0.551401 0.000179 
1.032057 0.858769 -0.000898 
0.321285 0.686186 0.000728 
0.428188 0.471138 0.000173 
0.283878 0.495043 0.001032 
0.247877 0.179052 0.000209 
0.627792 0.825804 -0.000792 
0.274773 0.787335 0.000622 
0.431886 0.697443 0.000384 
1.167168 0.861776 -0.000920 
0.400549 0.205708 -0.000413 
1.355281 0.853011 -0.000482 
0.521462 0.832636 -0.000844 
0.492860 0.631850 0.000292 
0.467943 0.341257 -0.000647 
0.590729 0.627448 0.000399 
0.306774 0.591016 0.000981 
0.225261 0.355276 0.000898 
0.772879 0.824279 -0.000607 
0.537222 0.455636 -0.000252 
1.093537 0.808555 -0.001195 
0.716014 0.522315 0.001445 
0.902232 0.907692 -0.001210 
0.936467 0.782864 -0.000733 
0.830963 0.529664 0.002586 
0.340114 0.896556 -0.000573 
0.257974 0.646340 0.001792 
0.455212 0.526462 0.000197 
0.363620 0.511449 0.000666 
0.417632 0.887935 -0.000900 
0.589624 0.533880 0.000144 
1.018574 0.777186 -0.000903 
0.633004 0.736601 0.000022 
0.989121 0.655613 0.001003 
0.181517 0.090882 0.000588 
0.202947 0.821619 0.000574 
1.264257 0.802740 -0.001453 
1.449606 0.789273 -0.000754 
0.173892 0.271099 0.000752 
0.348736 0.109095 -0.000102 
0.380965 0.649036 0.000634 
0.933743 0.578175 0.002614 
0.201815 0.447793 0.001454 
0.483540 0.753767 -0.000227 
0.266320 0.718989 0.000996 
0.351994 0.438998 0.000322 
0.225066 0.920528 0.000214 
0.283940 0.285997 0.000279 
1.095869 0.925526 -0.000629 
1.263197 0.904437 -0.000152 
0.252210 0.567312 0.001393 
1.450769 0.902011 0.000372 
0.585167 0.900280 -0.001667 
0.459716 0.147160 -0.000838 
0.377138 0.723080 0.000361 
0.478433 0.247930 -0.000828 
0.447438 0.065560 -0.000626 
0.279835 0.411701 0.000817 
0.699350 0.893930 -0.001496 
0.615099 0.579810 0.000241 
0.582915 0.481351 -0.000020 
0.530219 0.381433 -0.000759 
0.562681 0.771999 -0.000361 
0.474617 0.575552 0.000270 
0.702240 0.780874 -0.000384 
0.409840 0.387874 -0.000103 
[...]
POINT_DATA 749
SCALARS u float 1
LOOKUP_TABLE default
0.066106
0.023394
0.032317
0.025559
0.073626
0.111283
0.031580
0.060144
0.017758
0.013617
0.020791
0.021136
0.017451
0.015795
0.065831
0.024260
0.033082
0.024427
0.072039
0.110997
0.034346
0.062002
0.022007
0.016327
0.021638
0.021855
0.021794
0.016806
0.042717
0.041461
0.037880
0.047126
0.041770
0.041685
0.052570
0.030773
0.050429
0.035646
0.026014
0.056988
0.047507
0.038119
0.029560
0.021663
0.017228
0.021220
0.057582
0.087215
0.091279
0.071371
0.054009
0.040858
0.029744
0.015989
0.006863
0.018051
0.028375
0.031168
0.025218
0.009524
0.011382
0.040785
0.013427
0.020659
0.017995
0.011974
0.007375
0.013659
0.009389
0.014050
0.014452
0.014750
0.022913
0.028348
0.035595
0.040791
0.045653
0.052285
0.050667
0.036212
0.026749
0.056694
0.047242
0.037741
0.029128
0.021666
0.018171
0.021698
0.055211
0.086319
0.091319
0.071746
0.054221
0.040832
0.029197
0.014326
0.005474
0.018747
0.029007
0.030995
0.024165
0.007486
0.013798
0.043309
0.012832
0.021728
0.018077
0.011011
0.007068
0.014394
0.010002
0.019559
0.020281
0.016806
0.021899
0.027628
0.034667
0.039982
0.046048
0.053363
0.066235
0.023980
0.033435
0.024837
0.074416
0.111106
0.033134
0.061603
0.019108
0.014582
0.020954
0.021179
0.019770
0.017203
0.045770
0.044981
0.038388
0.039366
0.049107
0.034198
0.034078
0.049165
0.030173
0.024029
0.027325
0.031701
0.031016
0.023156
0.010731
0.004290
0.017409
0.024690
0.027042
0.027140
0.030705
0.024101
0.018113
0.024418
0.030787
0.031068
0.023945
0.011609
0.003650
0.016720
0.025082
0.029814
0.034189
0.041285
0.029244
0.024024
0.027663
0.032102
0.030851
0.022824
0.010180
0.004939
0.017978
0.025140
0.027359
0.027361
0.030573
0.036186
0.029742
0.030811
0.032543
0.030375
0.021552
0.010047
0.005604
0.017694
0.024547
0.023612
0.020603
0.021116
0.034760
0.054961
0.054038
0.033486
0.048630
0.050348
0.035075
0.037150
0.044661
0.046129
0.038053
0.039777
0.036787
0.049598
0.048868
0.035992
0.053096
0.034722
0.031104
0.038185
0.021006
0.011246
0.003044
0.024827
0.031617
0.023985
0.016393
0.024169
0.026647
0.030603
0.027257
0.028589
0.028932
0.041336
0.040210
0.034109
0.010930
0.021472
0.003822
0.026918
0.017399
0.029475
0.032916
0.031039
0.027371
0.028999
0.022738
0.022866
0.045150
0.033918
0.042669
0.037967
0.040774
0.044367
0.046889
0.037569
0.028686
0.021271
0.011491
0.002774
0.025663
0.027034
0.024312
0.016234
0.031626
0.023855
0.030795
0.027295
0.028400
0.041106
0.033773
0.040036
0.032422
0.021726
0.011235
0.003635
0.026881
0.031301
0.017166
0.027252
0.029482
0.033076
0.029107
0.022859
0.022567
0.045128
0.035402
0.013439
0.020218
0.019746
0.014723
0.016399
0.021794
0.010780
0.021373
0.021551
0.019761
0.026274
0.030792
0.003907
0.032806
0.007335
0.026061
0.026201
0.010592
0.019537
0.015875
0.017190
0.020728
0.018414
0.020180
0.027358
0.015646
0.004622
0.006501
0.011455
0.046229
0.018645
0.018184
0.020749
0.037172
0.018259
0.017414
0.023864
0.013483
0.034613
0.054893
0.033824
0.034166
0.024161
0.015094
0.007771
0.016034
0.020630
0.014772
0.021155
0.022382
0.071155
0.016227
0.029419
0.029301
0.019847
0.016940
0.031189
0.003423
0.006704
0.010891
0.015050
0.021600
0.025310
0.018143
0.019154
0.020771
0.022115
0.014486
0.024666
0.021859
0.033710
0.015514
0.008377
0.065650
0.020637
0.025297
0.018706
0.034768
0.032535
0.034528
0.011707
0.013384
0.018976
0.023271
0.006126
0.016199
0.008923
0.020193
0.016643
0.035446
0.016424
0.019684
0.012688
0.008959
0.021620
0.045286
0.012344
0.018378
0.023449
0.016979
0.013961
0.012964
0.012759
0.017414
0.031673
0.030981
0.048453
0.017872
0.011232
0.053813
0.022307
0.017834
0.064590
0.011526
0.019812
0.025023
0.028078
0.020084
0.044797
0.048513
0.019905
0.090309
0.026833
0.013946
0.020192
0.019068
0.014008
0.017111
0.022697
0.010481
0.021948
0.021623
0.020088
0.026119
0.030411
0.003587
0.032367
0.006582
0.025649
0.025846
0.010674
0.019307
0.015378
0.017343
0.019842
0.017299
0.021221
0.027272
0.016503
0.005206
0.008173
0.014732
0.046568
0.019163
0.019007
0.021068
0.037480
0.019154
0.018196
0.022694
0.017755
0.034908
0.054460
0.032906
0.034661
0.023765
0.015444
0.008077
0.021030
0.021010
0.014579
0.020432
0.022339
0.071147
0.016359
0.029713
0.028560
0.020267
0.018434
0.031115
0.003651
0.006433
0.010303
0.015834
0.021650
0.024212
0.018294
0.020337
0.021329
0.021198
0.015094
0.023584
0.021569
0.033948
0.015537
0.008528
0.063467
0.019568
0.025953
0.019382
0.034200
0.031831
0.034158
0.010242
0.013750
0.019831
0.025873
0.005050
0.015892
0.008451
0.019477
0.016888
0.035620
0.016601
0.018661
0.012236
0.010991
0.022170
0.047097
0.011410
0.019356
0.023117
0.016723
0.017381
0.013132
0.016611
0.018226
0.031376
0.031186
0.048512
0.018351
0.012030
0.054109
0.021793
0.017005
0.064929
0.011245
0.019460
0.024974
0.028079
0.020422
0.044749
0.047694
0.020152
0.089987
0.026200
0.014373
0.009879
0.019778
0.008197
0.017753
0.021493
0.021172
0.017875
0.013501
0.011437
0.010434
0.014994
0.021034
0.019144
0.018644
0.016443
0.014282
0.019892
0.019461
0.007847
0.008395
0.012546
0.021924
0.023264
0.021782
0.015187
0.018365
0.017994
0.031194
0.043100
0.050171
0.037510
0.024591
0.056157
0.055978
0.023761
0.081385
0.062974
0.047848
0.034918
0.021721
0.007457
0.011589
0.024323
0.030708
0.029317
0.016870
0.002799
0.019383
0.098151
0.103042
0.023558
0.043153
0.031325
0.024518
0.056440
0.052454
0.033648
0.016473
0.026151
0.042278
0.019124
0.025371
0.060213
0.060969
0.026151
0.049226
0.062893
0.052763
0.064478
0.098647
0.098475
0.077864
0.077762
0.086729
0.027771
0.012624
0.012491
0.011568
0.015401
0.017303
0.004455
0.004536
0.012414
0.011485
0.004007
0.011774
0.011782
0.021557
0.021566
0.021398
0.021103
0.013516
0.019266
0.015595
0.014024
0.015300
0.017293
0.018695
0.021249
0.010127
0.012342
0.034280
0.019657
0.019709
0.015045
0.015195
0.046989
0.032649
0.032843
0.010833
0.010942
0.013432
0.020335
0.035420
0.021045
0.018760
0.021457
0.021536
0.021200
0.064407
0.053153
0.053937
0.061793
0.047028
0.020133
0.015595
0.015715
0.015378
0.016988
0.020619
0.020465
0.016800
0.018658
0.019938
0.020195
0.019592
0.020185
0.018547
0.018519
0.021354
0.012805
0.010182
0.004166
0.027749
0.021501
0.021236
0.032564
0.021845
0.019126
0.018287
0.076691
0.064873
0.015207
0.023508
0.023985
0.006020
0.015432
0.018790
0.015761
0.017314
0.021643
0.018976
0.061883
0.021938
0.032560
0.019169
0.018777
0.076960
0.016923
0.012061
0.034115
0.046948
0.041009
0.037207
0.037537
0.057099
0.048656
0.039673
0.062145
0.063356
0.057780
0.035717
0.039299
0.025438
0.019901
0.034720
0.054539
0.054715
0.047177
0.047160
0.054833
0.062195
0.069688
0.063507
0.046981
0.054856
0.063358
0.039342
0.025662
0.044448
0.054807
0.063238
0.072011
0.069679
0.056863
0.062796
0.061982
0.047681
0.054514
0.054982
0.032308
0.039187
0.039391
0.046699
0.054353
0.019500
0.016569
0.025248
0.025666
0.057730
0.045195
