# vtk DataFile Version 2.0
Unstructured Grid Example
ASCII
DATASET UNSTRUCTURED_GRID
POINTS 749 float
0.012722 -0.023721 0.000614 
0.509372 0.001618 -0.000580 
0.200767 0.713060 0.001444 
0.703334 0.690158 0.000626 
0.100284 0.729985 0.000147 
0.132244 1.031848 0.000507 
1.600103 0.987195 0.001205 
1.579175 0.687131 -0.000870 
0.912041 0.505932 0.002893 
0.999913 0.705531 -0.000396 
0.637582 0.493394 0.000488 
0.652012 0.543095 0.000323 
0.895842 0.555317 0.002226 
1.048970 0.706339 -0.000379 
0.012967 -0.023461 0.180590 
0.509732 0.001678 0.179689 
0.200019 0.713296 0.177816 
0.703314 0.690620 0.180111 
0.100532 0.729322 0.179095 
0.132540 1.031374 0.180727 
1.599913 0.986052 0.181067 
1.578992 0.686002 0.179352 
0.911157 0.507716 0.182458 
1.000272 0.706515 0.181306 
0.636819 0.493626 0.180758 
0.651398 0.543252 0.180838 
0.894833 0.556979 0.181841 
1.049350 0.706739 0.181009 
1.589249 0.836324 0.135228 
1.589373 0.836878 0.045205 
1.592379 0.881595 0.090502 
1.586304 0.791554 0.089915 
0.314548 0.858818 0.134969 
0.314455 0.858906 0.044987 
0.319058 0.904757 0.090105 
0.309821 0.812786 0.089948 
0.137207 -0.016515 0.000290 
0.260889 -0.009603 0.000026 
0.384809 -0.003986 -0.000389 
0.032735 0.065630 0.000776 
0.052775 0.155867 0.000793 
0.073243 0.247097 0.000828 
0.094808 0.339194 0.001102 
0.117997 0.432318 0.001399 
0.143181 0.525906 0.001384 
0.170489 0.619620 0.001912 
0.150101 0.723450 0.000322 
0.117432 0.880948 0.000355 
0.238170 1.020481 -0.000035 
0.341664 1.009732 -0.000834 
0.443340 1.001399 -0.001343 
0.544618 0.995942 -0.001717 
0.645670 0.993355 -0.001867 
0.745952 0.994622 -0.001976 
0.847808 0.999244 -0.001561 
0.952038 1.005189 -0.001032 
1.058648 1.010084 -0.000287 
1.166624 1.011750 -0.000084 
1.275915 1.009900 0.000644 
1.384912 1.003682 0.000921 
1.492856 0.995491 0.001075 
1.589411 0.837203 0.000184 
0.854387 0.696737 0.000117 
0.611185 0.413698 -0.000404 
0.587983 0.333412 -0.001039 
0.567167 0.252150 -0.001002 
0.547623 0.169523 -0.000930 
0.528667 0.085930 -0.000779 
0.776249 0.498017 0.001874 
0.979891 0.604770 0.001786 
0.947910 0.630337 0.001339 
0.773150 0.547989 0.001628 
0.677512 0.615743 0.000521 
1.135784 0.709826 -0.001468 
1.222496 0.709463 -0.001786 
1.309752 0.706349 -0.001787 
1.398142 0.700536 -0.001510 
1.487985 0.693828 -0.001156 
0.137536 -0.016386 0.180425 
0.261269 -0.009512 0.180255 
0.385193 -0.003846 0.179993 
0.032956 0.065824 0.180191 
0.052995 0.155993 0.179911 
0.073456 0.247212 0.179564 
0.095000 0.339282 0.179072 
0.117965 0.432396 0.178472 
0.142927 0.525887 0.178010 
0.170296 0.619559 0.177521 
0.150191 0.722460 0.178931 
0.117596 0.880436 0.180081 
0.238383 1.020169 0.180768 
0.341858 1.009618 0.181073 
0.443434 1.001458 0.181153 
0.544674 0.996017 0.181191 
0.645729 0.993674 0.181050 
0.746000 0.995171 0.180921 
0.847822 0.999804 0.180436 
0.952005 1.005648 0.180011 
1.058543 1.010317 0.179599 
1.166440 1.011596 0.179865 
1.275573 1.009374 0.179900 
1.384807 1.002871 0.180479 
1.492685 0.994453 0.180884 
1.589188 0.836065 0.180261 
0.854405 0.697293 0.180763 
0.610841 0.413476 0.180885 
0.587921 0.333110 0.180787 
0.567387 0.251942 0.180091 
0.547888 0.169529 0.179845 
0.529010 0.086027 0.179738 
0.775281 0.499045 0.181544 
0.978751 0.606885 0.181415 
0.946860 0.632580 0.180958 
0.771899 0.549092 0.181229 
0.677152 0.616208 0.180488 
1.136018 0.709688 0.180928 
1.222597 0.709142 0.180730 
1.309737 0.705663 0.180373 
1.397915 0.699687 0.179928 
1.487869 0.692696 0.179488 
0.012856 -0.023707 0.090666 
0.509609 0.001689 0.089546 
0.200498 0.713606 0.089754 
0.703571 0.690541 0.090324 
0.099857 0.730308 0.089786 
0.132335 1.031653 0.090572 
1.600008 0.986555 0.091162 
1.578920 0.686414 0.089235 
0.911886 0.506627 0.092637 
1.000028 0.705924 0.090422 
0.636675 0.494141 0.090537 
0.651894 0.543182 0.090612 
0.895283 0.556189 0.092069 
1.048659 0.706876 0.090108 
1.587200 0.804627 0.121855 
1.587264 0.805011 0.058154 
1.591569 0.868659 0.058602 
1.591426 0.868278 0.122248 
0.317604 0.891312 0.058141 
0.311198 0.826463 0.058137 
0.311240 0.826323 0.121751 
0.317649 0.891278 0.121965 
1.496681 0.843555 0.135215 
1.404540 0.850884 0.135113 
1.312807 0.857037 0.135024 
1.221281 0.860656 0.134990 
1.130112 0.861322 0.135069 
1.039427 0.858785 0.135099 
0.948817 0.854197 0.135302 
0.858161 0.848595 0.135205 
0.767828 0.843860 0.135159 
0.677310 0.841846 0.135216 
0.587043 0.842975 0.135434 
0.496094 0.846213 0.135320 
0.405267 0.851530 0.135199 
1.499562 0.888778 0.090420 
1.407015 0.896223 0.090246 
1.314758 0.902376 0.090045 
1.222193 0.905795 0.089849 
1.130509 0.906531 0.089760 
1.039307 0.904080 0.089746 
0.948478 0.899470 0.089752 
0.858093 0.893880 0.089767 
0.768028 0.889315 0.089778 
0.678044 0.887219 0.089782 
0.588660 0.888244 0.089846 
0.499192 0.891503 0.089895 
0.409530 0.897184 0.089954 
1.496794 0.844104 0.045016 
1.404597 0.851360 0.044896 
1.312892 0.857347 0.044704 
1.221280 0.860843 0.044550 
1.130188 0.861272 0.044470 
1.039402 0.858619 0.044562 
0.948812 0.853940 0.044494 
0.858198 0.848324 0.044648 
0.767783 0.843574 0.044705 
0.677293 0.841622 0.044499 
0.586996 0.842720 0.044559 
0.496165 0.846160 0.044537 
0.405211 0.851527 0.044690 
1.493839 0.798662 0.089797 
1.402205 0.805871 0.089793 
1.310962 0.811914 0.089673 
1.220360 0.815399 0.089691 
1.129807 0.815867 0.089752 
1.039514 0.813116 0.089918 
0.948911 0.808944 0.090056 
0.858377 0.803082 0.090098 
0.767060 0.798349 0.090017 
0.676137 0.796181 0.090102 
0.584931 0.797786 0.090039 
0.493247 0.801303 0.089999 
0.401383 0.806130 0.089957 
1.596412 0.938148 0.131166 
1.582307 0.734477 0.129912 
1.582410 0.734964 0.049203 
1.596501 0.938107 0.051340 
1.584998 0.771564 0.019784 
1.584837 0.770690 0.159803 
1.593895 0.901455 0.019748 
1.593805 0.901717 0.160605 
1.587280 0.806018 0.032500 
1.587165 0.805300 0.147526 
1.591516 0.867287 0.031904 
1.591378 0.867270 0.147923 
1.593628 0.898944 0.121802 
1.585051 0.773818 0.121078 
1.585115 0.774192 0.058527 
1.593629 0.898312 0.056715 
1.583092 0.745716 0.089638 
1.595639 0.926419 0.090052 
0.356133 0.837584 0.117743 
1.543821 0.822568 0.117855 
0.721904 0.819964 0.112668 
0.812616 0.823334 0.112585 
0.903385 0.828712 0.112682 
0.631221 0.819531 0.112702 
1.175359 0.838445 0.112419 
0.448964 0.826180 0.112638 
0.994137 0.833769 0.112652 
0.540326 0.822032 0.112665 
1.084625 0.837302 0.112500 
1.266269 0.836394 0.112388 
1.357543 0.831606 0.112403 
1.449396 0.824765 0.112531 
0.343769 0.822618 0.102045 
1.553869 0.806174 0.102096 
0.359780 0.872943 0.117809 
1.546079 0.857115 0.118035 
0.813286 0.868866 0.112485 
0.723049 0.865463 0.112546 
0.903887 0.874024 0.112516 
0.632940 0.864940 0.112593 
0.994040 0.879171 0.112455 
0.542889 0.867151 0.112689 
0.452660 0.871583 0.112627 
1.176058 0.883579 0.112288 
1.084977 0.882781 0.112397 
1.267711 0.881794 0.112461 
1.359619 0.876730 0.112579 
1.451778 0.869886 0.112708 
0.350402 0.889743 0.102174 
1.558182 0.871971 0.102522 
0.314960 0.858806 0.090168 
0.313021 0.840541 0.097350 
0.314134 0.851327 0.072170 
0.315685 0.865936 0.108132 
0.316712 0.877242 0.083290 
1.543871 0.822895 0.062250 
0.355108 0.826978 0.072692 
0.721684 0.819731 0.067281 
0.812636 0.823233 0.067427 
0.903305 0.828577 0.067284 
0.631425 0.819261 0.067210 
1.084480 0.837400 0.067139 
0.540304 0.821897 0.067293 
0.994092 0.833678 0.067201 
1.175390 0.838461 0.067085 
0.448902 0.826132 0.067273 
1.266329 0.836553 0.067099 
1.357595 0.831765 0.067225 
1.449413 0.825039 0.067335 
1.553889 0.806295 0.077802 
0.345771 0.843771 0.057006 
0.359696 0.872962 0.062147 
1.546837 0.867856 0.073093 
0.723033 0.865332 0.067144 
0.813281 0.868723 0.067209 
0.903891 0.873901 0.067143 
0.632851 0.864876 0.067175 
1.176090 0.883717 0.067215 
0.994070 0.879072 0.067154 
1.085006 0.882735 0.067149 
0.542856 0.867089 0.067144 
0.452720 0.871535 0.067251 
1.267714 0.881850 0.067288 
1.359664 0.876922 0.067496 
1.451834 0.870136 0.067676 
0.350392 0.889745 0.077870 
1.556906 0.851505 0.057374 
0.414174 0.594535 0.000422 
0.338172 0.359930 0.000183 
0.389409 0.794901 -0.000138 
0.531441 0.711417 0.000038 
0.534169 0.552286 0.000146 
1.032802 0.856911 -0.000732 
0.321523 0.685231 0.000593 
0.430145 0.471350 0.000141 
0.285851 0.494932 0.000842 
0.247834 0.180872 0.000170 
0.626249 0.827664 -0.000646 
0.273142 0.785016 0.000507 
0.431737 0.697764 0.000313 
1.168567 0.859102 -0.000750 
0.400994 0.206211 -0.000337 
1.357382 0.851851 -0.000393 
0.519350 0.833795 -0.000688 
0.493420 0.632648 0.000238 
0.469735 0.341376 -0.000528 
0.591020 0.628880 0.000325 
0.308242 0.590449 0.000800 
0.226862 0.356304 0.000732 
0.772110 0.825787 -0.000495 
0.538995 0.456197 -0.000205 
1.094630 0.806294 -0.000975 
0.717034 0.523298 0.001178 
0.902408 0.907375 -0.000987 
0.936464 0.782280 -0.000598 
0.831843 0.529330 0.002109 
0.336228 0.894814 -0.000467 
0.258922 0.644946 0.001461 
0.456843 0.526845 0.000161 
0.365527 0.511397 0.000543 
0.414223 0.887648 -0.000734 
0.590791 0.535092 0.000118 
1.019042 0.775660 -0.000737 
0.632011 0.738564 0.000018 
0.989491 0.654441 0.000818 
0.180239 0.093802 0.000479 
0.200428 0.817234 0.000468 
1.266508 0.800601 -0.001185 
1.452699 0.789846 -0.000615 
0.174724 0.273159 0.000613 
0.347896 0.110203 -0.000083 
0.381657 0.648897 0.000517 
0.934485 0.576993 0.002132 
0.203658 0.448174 0.001186 
0.482468 0.754605 -0.000185 
0.266117 0.717059 0.000812 
0.354052 0.439130 0.000263 
0.220362 0.915960 0.000175 
0.285051 0.286997 0.000228 
1.096920 0.923030 -0.000513 
1.264642 0.902156 -0.000124 
0.253876 0.566603 0.001136 
1.452279 0.902402 0.000304 
0.582765 0.901827 -0.001360 
0.459454 0.147243 -0.000684 
0.376654 0.722701 0.000295 
0.479425 0.247933 -0.000675 
0.446079 0.065808 -0.000510 
0.281782 0.412083 0.000666 
0.697929 0.895759 -0.001220 
0.615917 0.581267 0.000197 
0.584431 0.482255 -0.000016 
0.532116 0.381646 -0.000619 
0.561378 0.773565 -0.000294 
0.475824 0.576121 0.000220 
0.701181 0.782883 -0.000313 
0.411844 0.388080 -0.000084 
[...]
POINT_DATA 749
SCALARS u float 1
LOOKUP_TABLE default
0.066106
0.023394
0.032317
0.025559
0.073626
0.111283
0.031580
0.060144
0.017758
0.013617
0.020791
0.021136
0.017451
0.015795
0.065831
0.024260
0.033082
0.024427
0.072039
0.110997
0.034346
0.062002
0.022007
0.016327
0.021638
0.021855
0.021794
0.016806
0.042717
0.041461
0.037880
0.047126
0.041770
0.041685
0.052570
0.030773
0.050429
0.035646
0.026014
0.056988
0.047507
0.038119
0.029560
0.021663
0.017228
0.021220
0.057582
0.087215
0.091279
0.071371
0.054009
0.040858
0.029744
0.015989
0.006863
0.018051
0.028375
0.031168
0.025218
0.009524
0.011382
0.040785
0.013427
0.020659
0.017995
0.011974
0.007375
0.013659
0.009389
0.014050
0.014452
0.014750
0.022913
0.028348
0.035595
0.040791
0.045653
0.052285
0.050667
0.036212
0.026749
0.056694
0.047242
0.037741
0.029128
0.021666
0.018171
0.021698
0.055211
0.086319
0.091319
0.071746
0.054221
0.040832
0.029197
0.014326
0.005474
0.018747
0.029007
0.030995
0.024165
0.007486
0.013798
0.043309
0.012832
0.021728
0.018077
0.011011
0.007068
0.014394
0.010002
0.019559
0.020281
0.016806
0.021899
0.027628
0.034667
0.039982
0.046048
0.053363
0.066235
0.023980
0.033435
0.024837
0.074416
0.111106
0.033134
0.061603
0.019108
0.014582
0.020954
0.021179
0.019770
0.017203
0.045770
0.044981
0.038388
0.039366
0.049107
0.034198
0.034078
0.049165
0.030173
0.024029
0.027325
0.031701
0.031016
0.023156
0.010731
0.004290
0.017409
0.024690
0.027042
0.027140
0.030705
0.024101
0.018113
0.024418
0.030787
0.031068
0.023945
0.011609
0.003650
0.016720
0.025082
0.029814
0.034189
0.041285
0.029244
0.024024
0.027663
0.032102
0.030851
0.022824
0.010180
0.004939
0.017978
0.025140
0.027359
0.027361
0.030573
0.036186
0.029742
0.030811
0.032543
0.030375
0.021552
0.010047
0.005604
0.017694
0.024547
0.023612
0.020603
0.021116
0.034760
0.054961
0.054038
0.033486
0.048630
0.050348
0.035075
0.037150
0.044661
0.046129
0.038053
0.039777
0.036787
0.049598
0.048868
0.035992
0.053096
0.034722
0.031104
0.038185
0.021006
0.011246
0.003044
0.024827
0.031617
0.023985
0.016393
0.024169
0.026647
0.030603
0.027257
0.028589
0.028932
0.041336
0.040210
0.034109
0.010930
0.021472
0.003822
0.026918
0.017399
0.029475
0.032916
0.031039
0.027371
0.028999
0.022738
0.022866
0.045150
0.033918
0.042669
0.037967
0.040774
0.044367
0.046889
0.037569
0.028686
0.021271
0.011491
0.002774
0.025663
0.027034
0.024312
0.016234
0.031626
0.023855
0.030795
0.027295
0.028400
0.041106
0.033773
0.040036
0.032422
0.021726
0.011235
0.003635
0.026881
0.031301
0.017166
0.027252
0.029482
0.033076
0.029107
0.022859
0.022567
0.045128
0.035402
0.013439
0.020218
0.019746
0.014723
0.016399
0.021794
0.010780
0.021373
0.021551
0.019761
0.026274
0.030792
0.003907
0.032806
0.007335
0.026061
0.026201
0.010592
0.019537
0.015875
0.017190
0.020728
0.018414
0.020180
0.027358
0.015646
0.004622
0.006501
0.011455
0.046229
0.018645
0.018184
0.020749
0.037172
0.018259
0.017414
0.023864
0.013483
0.034613
0.054893
0.033824
0.034166
0.024161
0.015094
0.007771
0.016034
0.020630
0.014772
0.021155
0.022382
0.071155
0.016227
0.029419
0.029301
0.019847
0.016940
0.031189
0.003423
0.006704
0.010891
0.015050
0.021600
0.025310
0.018143
0.019154
0.020771
0.022115
0.014486
0.024666
0.021859
0.033710
0.015514
0.008377
0.065650
0.020637
0.025297
0.018706
0.034768
0.032535
0.034528
0.011707
0.013384
0.018976
0.023271
0.006126
0.016199
0.008923
0.020193
0.016643
0.035446
0.016424
0.019684
0.012688
0.008959
0.021620
0.045286
0.012344
0.018378
0.023449
0.016979
0.013961
0.012964
0.012759
0.017414
0.031673
0.030981
0.048453
0.017872
0.011232
0.053813
0.022307
0.017834
0.064590
0.011526
0.019812
0.025023
0.028078
0.020084
0.044797
0.048513
0.019905
0.090309
0.026833
0.013946
0.020192
0.019068
0.014008
0.017111
0.022697
0.010481
0.021948
0.021623
0.020088
0.026119
0.030411
0.003587
0.032367
0.006582
0.025649
0.025846
0.010674
0.019307
0.015378
0.017343
0.019842
0.017299
0.021221
0.027272
0.016503
0.005206
0.008173
0.014732
0.046568
0.019163
0.019007
0.021068
0.037480
0.019154
0.018196
0.022694
0.017755
0.034908
0.054460
0.032906
0.034661
0.023765
0.015444
0.008077
0.021030
0.021010
0.014579
0.020432
0.022339
0.071147
0.016359
0.029713
0.028560
0.020267
0.018434
0.031115
0.003651
0.006433
0.010303
0.015834
0.021650
0.024212
0.018294
0.020337
0.021329
0.021198
0.015094
0.023584
0.021569
0.033948
0.015537
0.008528
0.063467
0.019568
0.025953
0.019382
0.034200
0.031831
0.034158
0.010242
0.013750
0.019831
0.025873
0.005050
0.015892
0.008451
0.019477
0.016888
0.035620
0.016601
0.018661
0.012236
0.010991
0.022170
0.047097
0.011410
0.019356
0.023117
0.016723
0.017381
0.013132
0.016611
0.018226
0.031376
0.031186
0.048512
0.018351
0.012030
0.054109
0.021793
0.017005
0.064929
0.011245
0.019460
0.024974
0.028079
0.020422
0.044749
0.047694
0.020152
0.089987
0.026200
0.014373
0.009879
0.019778
0.008197
0.017753
0.021493
0.021172
0.017875
0.013501
0.011437
0.010434
0.014994
0.021034
0.019144
0.018644
0.016443
0.014282
0.019892
0.019461
0.007847
0.008395
0.012546
0.021924
0.023264
0.021782
0.015187
0.018365
0.017994
0.031194
0.043100
0.050171
0.037510
0.024591
0.056157
0.055978
0.023761
0.081385
0.062974
0.047848
0.034918
0.021721
0.007457
0.011589
0.024323
0.030708
0.029317
0.016870
0.002799
0.019383
0.098151
0.103042
0.023558
0.043153
0.031325
0.024518
0.056440
0.052454
0.033648
0.016473
0.026151
0.042278
0.019124
0.025371
0.060213
0.060969
0.026151
0.049226
0.062893
0.052763
0.064478
0.098647
0.098475
0.077864
0.077762
0.086729
0.027771
0.012624
0.012491
0.011568
0.015401
0.017303
0.004455
0.004536
0.012414
0.011485
0.004007
0.011774
0.011782
0.021557
0.021566
0.021398
0.021103
0.013516
0.019266
0.015595
0.014024
0.015300
0.017293
0.018695
0.021249
0.010127
0.012342
0.034280
0.019657
0.019709
0.015045
0.015195
0.046989
0.032649
0.032843
0.010833
0.010942
0.013432
0.020335
0.035420
0.021045
0.018760
0.021457
0.021536
0.021200
0.064407
0.053153
0.053937
0.061793
0.047028
0.020133
0.015595
0.015715
0.015378
0.016988
0.020619
0.020465
0.016800
0.018658
0.019938
0.020195
0.019592
0.020185
0.018547
0.018519
0.021354
0.012805
0.010182
0.004166
0.027749
0.021501
0.021236
0.032564
0.021845
0.019126
0.018287
0.076691
0.064873
0.015207
0.023508
0.023985
0.006020
0.015432
0.018790
0.015761
0.017314
0.021643
0.018976
0.061883
0.021938
0.032560
0.019169
0.018777
0.076960
0.016923
0.012061
0.034115
0.046948
0.041009
0.037207
0.037537
0.057099
0.048656
0.039673
0.062145
0.063356
0.057780
0.035717
0.039299
0.025438
0.019901
0.034720
0.054539
0.054715
0.047177
0.047160
0.054833
0.062195
0.069688
0.063507
0.046981
0.054856
0.063358
0.039342
0.025662
0.044448
0.054807
0.063238
0.072011
0.069679
0.056863
0.062796
0.061982
0.047681
0.054514
0.054982
0.032308
0.039187
0.039391
0.046699
0.054353
0.019500
0.016569
0.025248
0.025666
0.057730
0.045195
