# vtk DataFile Version 2.0
Unstructured Grid Example
ASCII
DATASET UNSTRUCTURED_GRID
POINTS 749 float
-0.002956 0.005511 -0.000143 
0.497823 -0.000376 0.000135 
0.199822 0.696966 -0.000336 
0.699225 0.702287 -0.000145 
0.099934 0.693034 -0.000034 
0.092509 0.992601 -0.000118 
1.599976 1.002975 -0.000280 
1.604838 0.702990 0.000202 
0.915688 0.498622 -0.000672 
1.000020 0.698715 0.000092 
0.644083 0.501535 -0.000113 
0.658335 0.551604 -0.000075 
0.900966 0.548765 -0.000517 
1.050239 0.698527 0.000088 
-0.003013 0.005451 0.179863 
0.497739 -0.000390 0.180072 
0.199996 0.696911 0.180507 
0.699230 0.702179 0.179974 
0.099876 0.693188 0.180210 
0.092440 0.992711 0.179831 
1.600020 1.003241 0.179752 
1.604881 0.703252 0.180151 
0.915893 0.498207 0.179429 
0.999937 0.698486 0.179697 
0.644260 0.501481 0.179824 
0.658478 0.551568 0.179805 
0.901200 0.548379 0.179572 
1.050151 0.698434 0.179765 
1.602498 0.853177 0.134947 
1.602469 0.853049 0.044952 
1.601771 0.898114 0.089883 
1.603182 0.808124 0.090020 
0.296620 0.847951 0.135007 
0.296642 0.847931 0.045003 
0.295572 0.892733 0.089976 
0.297718 0.803191 0.090012 
0.122164 0.003837 -0.000067 
0.247470 0.002231 -0.000006 
0.372721 0.000926 0.000090 
0.023203 0.092581 -0.000180 
0.049355 0.179445 -0.000184 
0.075408 0.266079 -0.000192 
0.101206 0.352511 -0.000256 
0.126627 0.438704 -0.000325 
0.151584 0.524789 -0.000321 
0.176048 0.610846 -0.000444 
0.149977 0.694552 -0.000075 
0.095950 0.842810 -0.000082 
0.199934 0.995242 0.000008 
0.307925 0.997739 0.000194 
0.416338 0.999675 0.000312 
0.524843 1.000943 0.000399 
0.633401 1.001544 0.000434 
0.742138 1.001250 0.000459 
0.850509 1.000176 0.000363 
0.958329 0.998794 0.000240 
1.065595 0.997657 0.000067 
1.172545 0.997270 0.000020 
1.279189 0.997700 -0.000150 
1.385901 0.999145 -0.000214 
1.492857 1.001048 -0.000250 
1.602460 0.852973 -0.000043 
0.848981 0.700758 -0.000027 
0.620874 0.417356 0.000094 
0.596924 0.333315 0.000241 
0.572419 0.249501 0.000233 
0.547618 0.166003 0.000216 
0.522681 0.082730 0.000181 
0.779551 0.500461 -0.000435 
0.983106 0.598892 -0.000415 
0.950486 0.623760 -0.000311 
0.779831 0.550467 -0.000378 
0.678818 0.627151 -0.000121 
1.143033 0.697717 0.000341 
1.235851 0.697802 0.000415 
1.328543 0.698525 0.000415 
1.420971 0.699875 0.000351 
1.513061 0.701434 0.000269 
0.122087 0.003807 0.179901 
0.247382 0.002210 0.179941 
0.372632 0.000893 0.180002 
0.023152 0.092536 0.179956 
0.049304 0.179416 0.180021 
0.075359 0.266052 0.180101 
0.101162 0.352490 0.180216 
0.126634 0.438686 0.180355 
0.151643 0.524794 0.180462 
0.176093 0.610860 0.180576 
0.149956 0.694782 0.180248 
0.095912 0.842929 0.179981 
0.199885 0.995314 0.179822 
0.307880 0.997765 0.179751 
0.416316 0.999661 0.179732 
0.524830 1.000925 0.179723 
0.633388 1.001470 0.179756 
0.742127 1.001122 0.179786 
0.850506 1.000046 0.179899 
0.958337 0.998688 0.179997 
1.065620 0.997603 0.180093 
1.172587 0.997306 0.180031 
1.279268 0.997822 0.180023 
1.385925 0.999333 0.179889 
1.492897 1.001289 0.179795 
1.602512 0.853238 0.179939 
0.848977 0.700629 0.179823 
0.620954 0.417408 0.179794 
0.596938 0.333385 0.179817 
0.572367 0.249549 0.179979 
0.547556 0.166002 0.180036 
0.522601 0.082707 0.180061 
0.779776 0.500222 0.179641 
0.983371 0.598400 0.179671 
0.950730 0.623239 0.179777 
0.780122 0.550211 0.179715 
0.678901 0.627043 0.179887 
1.142979 0.697749 0.179785 
1.235828 0.697876 0.179830 
1.328546 0.698684 0.179913 
1.421023 0.700073 0.180017 
1.513088 0.701697 0.180119 
-0.002987 0.005508 0.089845 
0.497768 -0.000392 0.090106 
0.199884 0.696839 0.090057 
0.699170 0.702198 0.089925 
0.100033 0.692959 0.090050 
0.092488 0.992646 0.089867 
1.599998 1.003124 0.089730 
1.604897 0.703156 0.090178 
0.915724 0.498460 0.089387 
0.999993 0.698624 0.089902 
0.644293 0.501361 0.089875 
0.658362 0.551584 0.089858 
0.901096 0.548562 0.089519 
1.050312 0.698402 0.089975 
1.602974 0.821329 0.121812 
1.602959 0.821240 0.058186 
1.601959 0.884877 0.058082 
1.601992 0.884966 0.121720 
0.295910 0.879614 0.058189 
0.297398 0.816256 0.058190 
0.297389 0.816288 0.121836 
0.295899 0.879622 0.121786 
1.509573 0.851497 0.134950 
1.416550 0.849795 0.134974 
1.323432 0.848365 0.134994 
1.230265 0.847524 0.135002 
1.137016 0.847370 0.134984 
1.043654 0.847959 0.134977 
0.950275 0.849025 0.134930 
0.856906 0.850326 0.134952 
0.763463 0.851427 0.134963 
0.670062 0.851894 0.134950 
0.576603 0.851632 0.134899 
0.483303 0.850880 0.134926 
0.389974 0.849645 0.134954 
1.508904 0.896446 0.089903 
1.415975 0.894716 0.089943 
1.322978 0.893286 0.089989 
1.230053 0.892492 0.090035 
1.136924 0.892321 0.090056 
1.043682 0.892890 0.090059 
0.950354 0.893962 0.090058 
0.856922 0.895260 0.090054 
0.763416 0.896321 0.090051 
0.669892 0.896808 0.090051 
0.576227 0.896570 0.090036 
0.482583 0.895812 0.090024 
0.388984 0.894492 0.090011 
1.509547 0.851370 0.044996 
1.416537 0.849684 0.045024 
1.323412 0.848293 0.045069 
1.230265 0.847481 0.045105 
1.136998 0.847381 0.045123 
1.043660 0.847998 0.045102 
0.950276 0.849085 0.045118 
0.856898 0.850389 0.045082 
0.763473 0.851493 0.045069 
0.670066 0.851947 0.045116 
0.576614 0.851691 0.045102 
0.483286 0.850892 0.045108 
0.389987 0.849645 0.045072 
1.510234 0.806473 0.090047 
1.417092 0.804798 0.090048 
1.323860 0.803394 0.090076 
1.230479 0.802584 0.090072 
1.137087 0.802475 0.090058 
1.043634 0.803114 0.090019 
0.950253 0.804084 0.089987 
0.856856 0.805446 0.089977 
0.763641 0.806545 0.089996 
0.670335 0.807049 0.089976 
0.577094 0.806676 0.089991 
0.483964 0.805859 0.090000 
0.390876 0.804738 0.090010 
1.600834 0.954992 0.130119 
1.604111 0.751368 0.130410 
1.604087 0.751255 0.049796 
1.600813 0.954316 0.050271 
1.603485 0.787498 0.020088 
1.603523 0.787701 0.160008 
1.601418 0.917353 0.018996 
1.601439 0.918710 0.159822 
1.602955 0.822042 0.032520 
1.602982 0.822208 0.147474 
1.601971 0.883263 0.031423 
1.602003 0.884164 0.147382 
1.601480 0.915637 0.121037 
1.603473 0.790560 0.121307 
1.603458 0.790473 0.058785 
1.601480 0.914564 0.055976 
1.603928 0.762325 0.090084 
1.601013 0.942968 0.089071 
0.341703 0.831627 0.117752 
1.558307 0.835116 0.117725 
0.716917 0.829251 0.112461 
0.810272 0.828468 0.112480 
0.903615 0.827218 0.112458 
0.623555 0.829351 0.112453 
1.183719 0.824957 0.112519 
0.437037 0.827807 0.112468 
0.996961 0.826044 0.112465 
0.530242 0.828770 0.112462 
1.090368 0.825223 0.112500 
1.277029 0.825434 0.112526 
1.370253 0.826546 0.112522 
1.463344 0.828135 0.112493 
0.330922 0.815849 0.102144 
1.569627 0.819669 0.102132 
0.340856 0.865927 0.117736 
1.557783 0.869605 0.117684 
0.810117 0.873344 0.112504 
0.716651 0.874135 0.112489 
0.903498 0.872146 0.112496 
0.623155 0.874256 0.112478 
0.996984 0.870950 0.112510 
0.529646 0.873743 0.112456 
0.436178 0.872713 0.112471 
1.183557 0.869926 0.112549 
1.090287 0.870111 0.112524 
1.276693 0.870341 0.112509 
1.369771 0.871517 0.112482 
1.462790 0.873107 0.112452 
0.329381 0.881279 0.102114 
1.568624 0.885408 0.102033 
0.296524 0.847907 0.090146 
0.296975 0.830262 0.097390 
0.296716 0.840582 0.072150 
0.296356 0.854879 0.108084 
0.296117 0.865852 0.083267 
1.558296 0.835040 0.062250 
0.341941 0.821152 0.072764 
0.716968 0.829305 0.067551 
0.810268 0.828491 0.067517 
0.903633 0.827250 0.067550 
0.623507 0.829414 0.067567 
1.090402 0.825200 0.067584 
0.530247 0.828802 0.067548 
0.996971 0.826065 0.067569 
1.183712 0.824953 0.067596 
0.437052 0.827818 0.067553 
1.277015 0.825397 0.067593 
1.370241 0.826509 0.067564 
1.463340 0.828072 0.067538 
1.569622 0.819641 0.077892 
0.330457 0.836505 0.057153 
0.340875 0.865923 0.062274 
1.557607 0.880049 0.072670 
0.716655 0.874165 0.067583 
0.810118 0.873378 0.067568 
0.903497 0.872175 0.067583 
0.623176 0.874271 0.067576 
1.183549 0.869894 0.067566 
0.996977 0.870973 0.067580 
1.090280 0.870122 0.067582 
0.529654 0.873757 0.067583 
0.436164 0.872724 0.067558 
1.276693 0.870328 0.067549 
1.369761 0.871473 0.067501 
1.462778 0.873049 0.067459 
0.329383 0.881279 0.077876 
1.568921 0.864592 0.057067 
0.420835 0.595461 -0.000098 
0.348013 0.362397 -0.000043 
0.379719 0.792827 0.000032 
0.528452 0.718175 -0.000009 
0.540837 0.557108 -0.000034 
1.036857 0.846792 0.000170 
0.322818 0.680028 -0.000138 
0.440808 0.472507 -0.000033 
0.296601 0.494330 -0.000196 
0.247600 0.190785 -0.000040 
0.617846 0.837796 0.000150 
0.264261 0.772383 -0.000118 
0.430927 0.699507 -0.000073 
1.176190 0.844537 0.000174 
0.403420 0.208949 0.000078 
1.368824 0.845531 0.000091 
0.507843 0.840104 0.000160 
0.496466 0.636994 -0.000055 
0.479498 0.342024 0.000123 
0.592603 0.636679 -0.000076 
0.316238 0.587361 -0.000186 
0.235583 0.361905 -0.000170 
0.767920 0.834003 0.000115 
0.548648 0.459254 0.000048 
1.100582 0.793978 0.000226 
0.722590 0.528656 -0.000274 
0.903365 0.905647 0.000229 
0.936451 0.779101 0.000139 
0.836637 0.527509 -0.000490 
0.315060 0.885327 0.000108 
0.264086 0.637351 -0.000339 
0.465726 0.528930 -0.000037 
0.375916 0.511113 -0.000126 
0.395653 0.886083 0.000171 
0.597147 0.541692 -0.000027 
1.021591 0.767349 0.000171 
0.626604 0.749251 -0.000004 
0.991511 0.648061 -0.000190 
0.173278 0.109708 -0.000111 
0.186709 0.793348 -0.000109 
1.278771 0.788952 0.000275 
1.469544 0.792966 0.000143 
0.179254 0.284383 -0.000143 
0.343318 0.116239 0.000019 
0.385430 0.648140 -0.000120 
0.938531 0.570551 -0.000495 
0.213696 0.450253 -0.000276 
0.476627 0.759165 0.000043 
0.265012 0.706546 -0.000189 
0.365258 0.439851 -0.000061 
0.194740 0.891082 -0.000041 
0.291099 0.292444 -0.000053 
1.102647 0.909434 0.000119 
1.272512 0.889734 0.000029 
0.262952 0.562743 -0.000264 
1.460503 0.904529 -0.000071 
0.569682 0.910258 0.000316 
0.458027 0.147696 0.000159 
0.374021 0.720638 -0.000068 
0.484828 0.247951 0.000157 
0.438674 0.067160 0.000119 
0.292390 0.414166 -0.000155 
0.690193 0.905722 0.000283 
0.620374 0.589205 -0.000046 
0.592690 0.487176 0.000004 
0.542449 0.382804 0.000144 
0.554278 0.782089 0.000068 
0.482396 0.579217 -0.000051 
0.695412 0.793830 0.000073 
[...]
POINT_DATA 749
SCALARS u float 1
LOOKUP_TABLE default
0.066106
0.023394
0.032317
0.025559
0.073626
0.111283
0.031580
0.060144
0.017758
0.013617
0.020791
0.021136
0.017451
0.015795
0.065831
0.024260
0.033082
0.024427
0.072039
0.110997
0.034346
0.062002
0.022007
0.016327
0.021638
0.021855
0.021794
0.016806
0.042717
0.041461
0.037880
0.047126
0.041770
0.041685
0.052570
0.030773
0.050429
0.035646
0.026014
0.056988
0.047507
0.038119
0.029560
0.021663
0.017228
0.021220
0.057582
0.087215
0.091279
0.071371
0.054009
0.040858
0.029744
0.015989
0.006863
0.018051
0.028375
0.031168
0.025218
0.009524
0.011382
0.040785
0.013427
0.020659
0.017995
0.011974
0.007375
0.013659
0.009389
0.014050
0.014452
0.014750
0.022913
0.028348
0.035595
0.040791
0.045653
0.052285
0.050667
0.036212
0.026749
0.056694
0.047242
0.037741
0.029128
0.021666
0.018171
0.021698
0.055211
0.086319
0.091319
0.071746
0.054221
0.040832
0.029197
0.014326
0.005474
0.018747
0.029007
0.030995
0.024165
0.007486
0.013798
0.043309
0.012832
0.021728
0.018077
0.011011
0.007068
0.014394
0.010002
0.019559
0.020281
0.016806
0.021899
0.027628
0.034667
0.039982
0.046048
0.053363
0.066235
0.023980
0.033435
0.024837
0.074416
0.111106
0.033134
0.061603
0.019108
0.014582
0.020954
0.021179
0.019770
0.017203
0.045770
0.044981
0.038388
0.039366
0.049107
0.034198
0.034078
0.049165
0.030173
0.024029
0.027325
0.031701
0.031016
0.023156
0.010731
0.004290
0.017409
0.024690
0.027042
0.027140
0.030705
0.024101
0.018113
0.024418
0.030787
0.031068
0.023945
0.011609
0.003650
0.016720
0.025082
0.029814
0.034189
0.041285
0.029244
0.024024
0.027663
0.032102
0.030851
0.022824
0.010180
0.004939
0.017978
0.025140
0.027359
0.027361
0.030573
0.036186
0.029742
0.030811
0.032543
0.030375
0.021552
0.010047
0.005604
0.017694
0.024547
0.023612
0.020603
0.021116
0.034760
0.054961
0.054038
0.033486
0.048630
0.050348
0.035075
0.037150
0.044661
0.046129
0.038053
0.039777
0.036787
0.049598
0.048868
0.035992
0.053096
0.034722
0.031104
0.038185
0.021006
0.011246
0.003044
0.024827
0.031617
0.023985
0.016393
0.024169
0.026647
0.030603
0.027257
0.028589
0.028932
0.041336
0.040210
0.034109
0.010930
0.021472
0.003822
0.026918
0.017399
0.029475
0.032916
0.031039
0.027371
0.028999
0.022738
0.022866
0.045150
0.033918
0.042669
0.037967
0.040774
0.044367
0.046889
0.037569
0.028686
0.021271
0.011491
0.002774
0.025663
0.027034
0.024312
0.016234
0.031626
0.023855
0.030795
0.027295
0.028400
0.041106
0.033773
0.040036
0.032422
0.021726
0.011235
0.003635
0.026881
0.031301
0.017166
0.027252
0.029482
0.033076
0.029107
0.022859
0.022567
0.045128
0.035402
0.013439
0.020218
0.019746
0.014723
0.016399
0.021794
0.010780
0.021373
0.021551
0.019761
0.026274
0.030792
0.003907
0.032806
0.007335
0.026061
0.026201
0.010592
0.019537
0.015875
0.017190
0.020728
0.018414
0.020180
0.027358
0.015646
0.004622
0.006501
0.011455
0.046229
0.018645
0.018184
0.020749
0.037172
0.018259
0.017414
0.023864
0.013483
0.034613
0.054893
0.033824
0.034166
0.024161
0.015094
0.007771
0.016034
0.020630
0.014772
0.021155
0.022382
0.071155
0.016227
0.029419
0.029301
0.019847
0.016940
0.031189
0.003423
0.006704
0.010891
0.015050
0.021600
0.025310
0.018143
0.019154
0.020771
0.022115
0.014486
0.024666
0.021859
0.033710
0.015514
0.008377
0.065650
0.020637
0.025297
0.018706
0.034768
0.032535
0.034528
0.011707
0.013384
0.018976
0.023271
0.006126
0.016199
0.008923
0.020193
0.016643
0.035446
0.016424
0.019684
0.012688
0.008959
0.021620
0.045286
0.012344
0.018378
0.023449
0.016979
0.013961
0.012964
0.012759
0.017414
0.031673
0.030981
0.048453
0.017872
0.011232
0.053813
0.022307
0.017834
0.064590
0.011526
0.019812
0.025023
0.028078
0.020084
0.044797
0.048513
0.019905
0.090309
0.026833
0.013946
0.020192
0.019068
0.014008
0.017111
0.022697
0.010481
0.021948
0.021623
0.020088
0.026119
0.030411
0.003587
0.032367
0.006582
0.025649
0.025846
0.010674
0.019307
0.015378
0.017343
0.019842
0.017299
0.021221
0.027272
0.016503
0.005206
0.008173
0.014732
0.046568
0.019163
0.019007
0.021068
0.037480
0.019154
0.018196
0.022694
0.017755
0.034908
0.054460
0.032906
0.034661
0.023765
0.015444
0.008077
0.021030
0.021010
0.014579
0.020432
0.022339
0.071147
0.016359
0.029713
0.028560
0.020267
0.018434
0.031115
0.003651
0.006433
0.010303
0.015834
0.021650
0.024212
0.018294
0.020337
0.021329
0.021198
0.015094
0.023584
0.021569
0.033948
0.015537
0.008528
0.063467
0.019568
0.025953
0.019382
0.034200
0.031831
0.034158
0.010242
0.013750
0.019831
0.025873
0.005050
0.015892
0.008451
0.019477
0.016888
0.035620
0.016601
0.018661
0.012236
0.010991
0.022170
0.047097
0.011410
0.019356
0.023117
0.016723
0.017381
0.013132
0.016611
0.018226
0.031376
0.031186
0.048512
0.018351
0.012030
0.054109
0.021793
0.017005
0.064929
0.011245
0.019460
0.024974
0.028079
0.020422
0.044749
0.047694
0.020152
0.089987
0.026200
0.014373
0.009879
0.019778
0.008197
0.017753
0.021493
0.021172
0.017875
0.013501
0.011437
0.010434
0.014994
0.021034
0.019144
0.018644
0.016443
0.014282
0.019892
0.019461
0.007847
0.008395
0.012546
0.021924
0.023264
0.021782
0.015187
0.018365
0.017994
0.031194
0.043100
0.050171
0.037510
0.024591
0.056157
0.055978
0.023761
0.081385
0.062974
0.047848
0.034918
0.021721
0.007457
0.011589
0.024323
0.030708
0.029317
0.016870
0.002799
0.019383
0.098151
0.103042
0.023558
0.043153
0.031325
0.024518
0.056440
0.052454
0.033648
0.016473
0.026151
0.042278
0.019124
0.025371
0.060213
0.060969
0.026151
0.049226
0.062893
0.052763
0.064478
0.098647
0.098475
0.077864
0.077762
0.086729
0.027771
0.012624
0.012491
0.011568
0.015401
0.017303
0.004455
0.004536
0.012414
0.011485
0.004007
0.011774
0.011782
0.021557
0.021566
0.021398
0.021103
0.013516
0.019266
0.015595
0.014024
0.015300
0.017293
0.018695
0.021249
0.010127
0.012342
0.034280
0.019657
0.019709
0.015045
0.015195
0.046989
0.032649
0.032843
0.010833
0.010942
0.013432
0.020335
0.035420
0.021045
0.018760
0.021457
0.021536
0.021200
0.064407
0.053153
0.053937
0.061793
0.047028
0.020133
0.015595
0.015715
0.015378
0.016988
0.020619
0.020465
0.016800
0.018658
0.019938
0.020195
0.019592
0.020185
0.018547
0.018519
0.021354
0.012805
0.010182
0.004166
0.027749
0.021501
0.021236
0.032564
0.021845
0.019126
0.018287
0.076691
0.064873
0.015207
0.023508
0.023985
0.006020
0.015432
0.018790
0.015761
0.017314
0.021643
0.018976
0.061883
0.021938
0.032560
0.019169
0.018777
0.076960
0.016923
0.012061
0.034115
0.046948
0.041009
0.037207
0.037537
0.057099
0.048656
0.039673
0.062145
0.063356
0.057780
0.035717
0.039299
0.025438
0.019901
0.034720
0.054539
0.054715
0.047177
0.047160
0.054833
0.062195
0.069688
0.063507
0.046981
0.054856
0.063358
0.039342
0.025662
0.044448
0.054807
0.063238
0.072011
0.069679
0.056863
0.062796
0.061982
0.047681
0.054514
0.054982
0.032308
0.039187
0.039391
0.046699
0.054353
0.019500
0.016569
0.025248
0.025666
0.057730
0.045195
