# vtk DataFile Version 2.0
Unstructured Grid Example
ASCII
DATASET UNSTRUCTURED_GRID
POINTS 749 float
-0.005805 0.010823 -0.000280 
0.495724 -0.000738 0.000265 
0.199650 0.694041 -0.000659 
0.698479 0.704490 -0.000286 
0.099870 0.686319 -0.000067 
0.085288 0.985469 -0.000232 
1.599953 1.005843 -0.000550 
1.609502 0.705872 0.000397 
0.916350 0.497294 -0.001320 
1.000040 0.697476 0.000181 
0.645264 0.503014 -0.000222 
0.659484 0.553150 -0.000148 
0.901897 0.547574 -0.001016 
1.050470 0.697108 0.000173 
-0.005917 0.010704 0.179731 
0.495559 -0.000766 0.180142 
0.199991 0.693934 0.180997 
0.698488 0.704280 0.179950 
0.099757 0.686621 0.180413 
0.085153 0.985685 0.179668 
1.600040 1.006364 0.179513 
1.609585 0.706387 0.180296 
0.916753 0.496480 0.178878 
0.999876 0.697028 0.179404 
0.645612 0.502908 0.179654 
0.659764 0.553079 0.179617 
0.902357 0.546816 0.179160 
1.050297 0.696925 0.179539 
1.604905 0.856240 0.134896 
1.604849 0.855987 0.044906 
1.603477 0.901116 0.089771 
1.606249 0.811135 0.090039 
0.293362 0.845976 0.135014 
0.293405 0.845937 0.045006 
0.291304 0.890548 0.089952 
0.295519 0.801447 0.090024 
0.119430 0.007535 -0.000132 
0.245032 0.004381 -0.000012 
0.370525 0.001819 0.000178 
0.021471 0.097479 -0.000354 
0.048734 0.183730 -0.000362 
0.075801 0.269528 -0.000378 
0.102369 0.354931 -0.000503 
0.128195 0.439864 -0.000638 
0.153111 0.524587 -0.000631 
0.177058 0.609251 -0.000872 
0.149954 0.689301 -0.000147 
0.092047 0.835879 -0.000162 
0.192986 0.990655 0.000016 
0.301794 0.995560 0.000380 
0.411431 0.999362 0.000613 
0.521250 1.001852 0.000783 
0.631172 1.003032 0.000852 
0.741445 1.002454 0.000901 
0.851000 1.000345 0.000712 
0.959472 0.997632 0.000471 
1.066858 0.995399 0.000131 
1.173621 0.994639 0.000038 
1.279784 0.995483 -0.000294 
1.386080 0.998320 -0.000420 
1.492858 1.002057 -0.000490 
1.604831 0.855839 -0.000084 
0.847998 0.701489 -0.000054 
0.622635 0.418021 0.000184 
0.598548 0.333297 0.000474 
0.573373 0.249019 0.000457 
0.547617 0.165364 0.000425 
0.521593 0.082149 0.000355 
0.780151 0.500905 -0.000855 
0.983690 0.597824 -0.000815 
0.950954 0.622565 -0.000611 
0.781045 0.550918 -0.000743 
0.679055 0.629224 -0.000238 
1.144351 0.695517 0.000670 
1.238278 0.695683 0.000815 
1.331957 0.697103 0.000815 
1.425119 0.699755 0.000689 
1.517618 0.702816 0.000528 
0.119280 0.007476 0.179806 
0.244859 0.004340 0.179884 
0.370349 0.001755 0.180003 
0.021370 0.097390 0.179913 
0.048634 0.183672 0.180040 
0.075704 0.269475 0.180199 
0.102282 0.354890 0.180423 
0.128210 0.439829 0.180697 
0.153227 0.524595 0.180908 
0.177146 0.609279 0.181131 
0.149913 0.689752 0.180488 
0.091971 0.836113 0.179963 
0.192889 0.990798 0.179649 
0.301705 0.995612 0.179510 
0.411388 0.999335 0.179474 
0.521224 1.001817 0.179456 
0.631145 1.002886 0.179521 
0.741423 1.002203 0.179580 
0.850994 1.000090 0.179801 
0.959487 0.997423 0.179995 
1.066906 0.995293 0.180183 
1.173704 0.994709 0.180061 
1.279939 0.995723 0.180046 
1.386128 0.998690 0.179781 
1.492935 1.002531 0.179597 
1.604933 0.856358 0.179881 
0.847990 0.701235 0.179652 
0.622792 0.418123 0.179596 
0.598577 0.333435 0.179641 
0.573272 0.249114 0.179959 
0.547496 0.165361 0.180071 
0.521437 0.082104 0.180120 
0.780593 0.500436 0.179296 
0.984211 0.596859 0.179354 
0.951433 0.621542 0.179563 
0.781616 0.550414 0.179439 
0.679219 0.629011 0.179777 
1.144244 0.695580 0.179577 
1.238232 0.695829 0.179667 
1.331964 0.697416 0.179830 
1.425222 0.700143 0.180033 
1.517670 0.703332 0.180234 
-0.005866 0.010817 0.089696 
0.495616 -0.000771 0.090207 
0.199773 0.693792 0.090112 
0.698371 0.704316 0.089852 
0.100065 0.686172 0.090098 
0.085247 0.985558 0.089739 
1.599996 1.006134 0.089470 
1.609618 0.706199 0.090349 
0.916421 0.496976 0.088797 
0.999987 0.697297 0.089807 
0.645678 0.502673 0.089755 
0.659538 0.553111 0.089721 
0.902152 0.547176 0.089056 
1.050612 0.696863 0.089951 
1.605840 0.824364 0.121804 
1.605811 0.824189 0.058192 
1.603847 0.887825 0.057988 
1.603912 0.887998 0.121624 
0.291968 0.877489 0.058198 
0.294891 0.814401 0.058200 
0.294872 0.814465 0.121851 
0.291947 0.877504 0.121754 
1.511916 0.852941 0.134902 
1.418733 0.849597 0.134949 
1.325362 0.846789 0.134989 
1.231898 0.845138 0.135004 
1.138270 0.844834 0.134969 
1.044422 0.845992 0.134955 
0.950540 0.848085 0.134862 
0.856678 0.850641 0.134907 
0.762670 0.852802 0.134927 
0.668745 0.853720 0.134901 
0.574706 0.853205 0.134802 
0.480978 0.851728 0.134854 
0.387195 0.849302 0.134909 
1.510602 0.897839 0.089809 
1.417603 0.894442 0.089888 
1.324472 0.891635 0.089979 
1.231481 0.890075 0.090069 
1.138089 0.889739 0.090110 
1.044477 0.890857 0.090116 
0.950695 0.892961 0.090113 
0.856710 0.895511 0.090106 
0.762578 0.897594 0.090101 
0.668410 0.898550 0.090099 
0.573968 0.898083 0.090070 
0.479565 0.896596 0.090048 
0.385250 0.894003 0.090021 
1.511865 0.852690 0.044993 
1.418707 0.849380 0.045048 
1.325324 0.846648 0.045135 
1.231898 0.845053 0.045205 
1.138236 0.844857 0.045242 
1.044434 0.846067 0.045200 
0.950542 0.848202 0.045231 
0.856662 0.850765 0.045160 
0.762690 0.852932 0.045135 
0.668753 0.853823 0.045229 
0.574728 0.853322 0.045201 
0.480946 0.851752 0.045211 
0.387220 0.849303 0.045141 
1.513213 0.807892 0.090093 
1.419798 0.804603 0.090094 
1.326204 0.801845 0.090149 
1.232318 0.800255 0.090141 
1.138409 0.800042 0.090113 
1.044382 0.801297 0.090037 
0.950497 0.803200 0.089975 
0.856580 0.805875 0.089955 
0.763020 0.808035 0.089992 
0.669280 0.809024 0.089953 
0.575670 0.808291 0.089982 
0.482277 0.806687 0.090000 
0.388967 0.804485 0.090020 
1.601637 0.958053 0.129928 
1.608073 0.754437 0.130501 
1.608026 0.754215 0.049903 
1.601596 0.957262 0.050077 
1.606845 0.790393 0.020143 
1.606918 0.790792 0.160046 
1.602786 0.920242 0.018859 
1.602827 0.921798 0.159679 
1.605804 0.824953 0.032523 
1.605856 0.825281 0.147465 
1.603871 0.886166 0.031336 
1.603934 0.887234 0.147284 
1.602907 0.918671 0.120897 
1.606821 0.793602 0.121348 
1.606791 0.793431 0.058832 
1.602907 0.917518 0.055841 
1.607715 0.765343 0.090165 
1.601990 0.945975 0.088893 
0.339081 0.830544 0.117753 
1.560940 0.837396 0.117702 
0.716011 0.830938 0.112423 
0.809847 0.829401 0.112461 
0.903656 0.826947 0.112417 
0.622162 0.831136 0.112408 
1.185238 0.822506 0.112537 
0.434870 0.828102 0.112437 
0.997474 0.824640 0.112431 
0.528409 0.829995 0.112425 
1.091412 0.823028 0.112500 
1.278984 0.823442 0.112551 
1.372563 0.825627 0.112544 
1.465878 0.828748 0.112486 
0.328588 0.814619 0.102161 
1.572490 0.822122 0.102138 
0.337417 0.864653 0.117723 
1.559909 0.871874 0.117620 
0.809541 0.874158 0.112507 
0.715488 0.875711 0.112479 
0.903428 0.871805 0.112493 
0.621377 0.875949 0.112458 
0.997519 0.869456 0.112521 
0.527240 0.874940 0.112414 
0.433183 0.872919 0.112442 
1.184919 0.867445 0.112597 
1.091252 0.867809 0.112547 
1.278326 0.868260 0.112518 
1.371616 0.870570 0.112464 
1.464791 0.873693 0.112405 
0.325561 0.879741 0.102102 
1.570522 0.887850 0.101944 
0.293174 0.845927 0.090142 
0.294059 0.828395 0.097397 
0.293551 0.838630 0.072146 
0.292843 0.852870 0.108076 
0.292375 0.863783 0.083263 
1.560917 0.837247 0.062250 
0.339549 0.820093 0.072777 
0.716111 0.831045 0.067600 
0.809838 0.829447 0.067533 
0.903693 0.827009 0.067598 
0.622068 0.831259 0.067632 
1.091478 0.822983 0.067665 
0.528419 0.830057 0.067595 
0.997495 0.824681 0.067636 
1.185224 0.822499 0.067689 
0.434898 0.828124 0.067604 
1.278956 0.823369 0.067683 
1.372539 0.825554 0.067625 
1.465871 0.828623 0.067575 
1.572481 0.822066 0.077908 
0.327674 0.835185 0.057180 
0.337455 0.864644 0.062297 
1.559564 0.882264 0.072594 
0.715495 0.875771 0.067662 
0.809543 0.874223 0.067633 
0.903426 0.871861 0.067663 
0.621418 0.875979 0.067649 
1.184904 0.867382 0.067630 
0.997505 0.869501 0.067658 
1.091238 0.867830 0.067660 
0.527255 0.874969 0.067662 
0.433156 0.872940 0.067613 
1.278324 0.868234 0.067597 
1.371595 0.870482 0.067502 
1.464766 0.873578 0.067420 
0.325566 0.879741 0.077877 
1.571105 0.866970 0.057011 
0.422045 0.595629 -0.000193 
0.349801 0.362845 -0.000084 
0.377959 0.792450 0.000063 
0.527908 0.719403 -0.000018 
0.542049 0.557984 -0.000067 
1.037593 0.844953 0.000334 
0.323053 0.679083 -0.000271 
0.442746 0.472717 -0.000064 
0.298554 0.494220 -0.000384 
0.247557 0.192587 -0.000078 
0.616319 0.839637 0.000295 
0.262647 0.770087 -0.000231 
0.430779 0.699824 -0.000143 
1.177575 0.841890 0.000342 
0.403861 0.209446 0.000154 
1.370903 0.844383 0.000179 
0.505752 0.841251 0.000314 
0.497020 0.637784 -0.000109 
0.481272 0.342142 0.000241 
0.592891 0.638096 -0.000148 
0.317691 0.586800 -0.000365 
0.237168 0.362923 -0.000334 
0.767158 0.835496 0.000226 
0.550402 0.459809 0.000094 
1.101664 0.791740 0.000445 
0.723599 0.529629 -0.000538 
0.903539 0.905333 0.000450 
0.936448 0.778524 0.000273 
0.837509 0.527178 -0.000962 
0.311214 0.883603 0.000213 
0.265024 0.635971 -0.000667 
0.467341 0.529309 -0.000073 
0.377804 0.511061 -0.000248 
0.392279 0.885799 0.000335 
0.598302 0.542892 -0.000054 
1.022054 0.765839 0.000336 
0.625621 0.751193 -0.000008 
0.991878 0.646902 -0.000373 
0.172014 0.112598 -0.000219 
0.184216 0.789007 -0.000214 
1.280999 0.786835 0.000540 
1.472605 0.793532 0.000281 
0.180077 0.286422 -0.000280 
0.342487 0.117335 0.000038 
0.386116 0.648002 -0.000236 
0.939266 0.569381 -0.000973 
0.215520 0.450631 -0.000541 
0.475565 0.759994 0.000085 
0.264811 0.704636 -0.000371 
0.367294 0.439982 -0.000120 
0.190084 0.886561 -0.000080 
0.292198 0.293434 -0.000104 
1.103688 0.906964 0.000234 
1.273943 0.887477 0.000057 
0.264601 0.562042 -0.000518 
1.461997 0.904915 -0.000138 
0.567305 0.911790 0.000620 
0.457768 0.147779 0.000312 
0.373543 0.720263 -0.000134 
0.485810 0.247954 0.000308 
0.437328 0.067406 0.000233 
0.294318 0.414545 -0.000304 
0.688787 0.907532 0.000557 
0.621183 0.590647 -0.000090 
0.594191 0.488070 0.000007 
0.544326 0.383015 0.000282 
0.552988 0.783638 0.000134 
0.483591 0.579779 -0.000101 
0.694363 0.795819 0.000143 
[...]
POINT_DATA 749
SCALARS u float 1
LOOKUP_TABLE default
0.066106
0.023394
0.032317
0.025559
0.073626
0.111283
0.031580
0.060144
0.017758
0.013617
0.020791
0.021136
0.017451
0.015795
0.065831
0.024260
0.033082
0.024427
0.072039
0.110997
0.034346
0.062002
0.022007
0.016327
0.021638
0.021855
0.021794
0.016806
0.042717
0.041461
0.037880
0.047126
0.041770
0.041685
0.052570
0.030773
0.050429
0.035646
0.026014
0.056988
0.047507
0.038119
0.029560
0.021663
0.017228
0.021220
0.057582
0.087215
0.091279
0.071371
0.054009
0.040858
0.029744
0.015989
0.006863
0.018051
0.028375
0.031168
0.025218
0.009524
0.011382
0.040785
0.013427
0.020659
0.017995
0.011974
0.007375
0.013659
0.009389
0.014050
0.014452
0.014750
0.022913
0.028348
0.035595
0.040791
0.045653
0.052285
0.050667
0.036212
0.026749
0.056694
0.047242
0.037741
0.029128
0.021666
0.018171
0.021698
0.055211
0.086319
0.091319
0.071746
0.054221
0.040832
0.029197
0.014326
0.005474
0.018747
0.029007
0.030995
0.024165
0.007486
0.013798
0.043309
0.012832
0.021728
0.018077
0.011011
0.007068
0.014394
0.010002
0.019559
0.020281
0.016806
0.021899
0.027628
0.034667
0.039982
0.046048
0.053363
0.066235
0.023980
0.033435
0.024837
0.074416
0.111106
0.033134
0.061603
0.019108
0.014582
0.020954
0.021179
0.019770
0.017203
0.045770
0.044981
0.038388
0.039366
0.049107
0.034198
0.034078
0.049165
0.030173
0.024029
0.027325
0.031701
0.031016
0.023156
0.010731
0.004290
0.017409
0.024690
0.027042
0.027140
0.030705
0.024101
0.018113
0.024418
0.030787
0.031068
0.023945
0.011609
0.003650
0.016720
0.025082
0.029814
0.034189
0.041285
0.029244
0.024024
0.027663
0.032102
0.030851
0.022824
0.010180
0.004939
0.017978
0.025140
0.027359
0.027361
0.030573
0.036186
0.029742
0.030811
0.032543
0.030375
0.021552
0.010047
0.005604
0.017694
0.024547
0.023612
0.020603
0.021116
0.034760
0.054961
0.054038
0.033486
0.048630
0.050348
0.035075
0.037150
0.044661
0.046129
0.038053
0.039777
0.036787
0.049598
0.048868
0.035992
0.053096
0.034722
0.031104
0.038185
0.021006
0.011246
0.003044
0.024827
0.031617
0.023985
0.016393
0.024169
0.026647
0.030603
0.027257
0.028589
0.028932
0.041336
0.040210
0.034109
0.010930
0.021472
0.003822
0.026918
0.017399
0.029475
0.032916
0.031039
0.027371
0.028999
0.022738
0.022866
0.045150
0.033918
0.042669
0.037967
0.040774
0.044367
0.046889
0.037569
0.028686
0.021271
0.011491
0.002774
0.025663
0.027034
0.024312
0.016234
0.031626
0.023855
0.030795
0.027295
0.028400
0.041106
0.033773
0.040036
0.032422
0.021726
0.011235
0.003635
0.026881
0.031301
0.017166
0.027252
0.029482
0.033076
0.029107
0.022859
0.022567
0.045128
0.035402
0.013439
0.020218
0.019746
0.014723
0.016399
0.021794
0.010780
0.021373
0.021551
0.019761
0.026274
0.030792
0.003907
0.032806
0.007335
0.026061
0.026201
0.010592
0.019537
0.015875
0.017190
0.020728
0.018414
0.020180
0.027358
0.015646
0.004622
0.006501
0.011455
0.046229
0.018645
0.018184
0.020749
0.037172
0.018259
0.017414
0.023864
0.013483
0.034613
0.054893
0.033824
0.034166
0.024161
0.015094
0.007771
0.016034
0.020630
0.014772
0.021155
0.022382
0.071155
0.016227
0.029419
0.029301
0.019847
0.016940
0.031189
0.003423
0.006704
0.010891
0.015050
0.021600
0.025310
0.018143
0.019154
0.020771
0.022115
0.014486
0.024666
0.021859
0.033710
0.015514
0.008377
0.065650
0.020637
0.025297
0.018706
0.034768
0.032535
0.034528
0.011707
0.013384
0.018976
0.023271
0.006126
0.016199
0.008923
0.020193
0.016643
0.035446
0.016424
0.019684
0.012688
0.008959
0.021620
0.045286
0.012344
0.018378
0.023449
0.016979
0.013961
0.012964
0.012759
0.017414
0.031673
0.030981
0.048453
0.017872
0.011232
0.053813
0.022307
0.017834
0.064590
0.011526
0.019812
0.025023
0.028078
0.020084
0.044797
0.048513
0.019905
0.090309
0.026833
0.013946
0.020192
0.019068
0.014008
0.017111
0.022697
0.010481
0.021948
0.021623
0.020088
0.026119
0.030411
0.003587
0.032367
0.006582
0.025649
0.025846
0.010674
0.019307
0.015378
0.017343
0.019842
0.017299
0.021221
0.027272
0.016503
0.005206
0.008173
0.014732
0.046568
0.019163
0.019007
0.021068
0.037480
0.019154
0.018196
0.022694
0.017755
0.034908
0.054460
0.032906
0.034661
0.023765
0.015444
0.008077
0.021030
0.021010
0.014579
0.020432
0.022339
0.071147
0.016359
0.029713
0.028560
0.020267
0.018434
0.031115
0.003651
0.006433
0.010303
0.015834
0.021650
0.024212
0.018294
0.020337
0.021329
0.021198
0.015094
0.023584
0.021569
0.033948
0.015537
0.008528
0.063467
0.019568
0.025953
0.019382
0.034200
0.031831
0.034158
0.010242
0.013750
0.019831
0.025873
0.005050
0.015892
0.008451
0.019477
0.016888
0.035620
0.016601
0.018661
0.012236
0.010991
0.022170
0.047097
0.011410
0.019356
0.023117
0.016723
0.017381
0.013132
0.016611
0.018226
0.031376
0.031186
0.048512
0.018351
0.012030
0.054109
0.021793
0.017005
0.064929
0.011245
0.019460
0.024974
0.028079
0.020422
0.044749
0.047694
0.020152
0.089987
0.026200
0.014373
0.009879
0.019778
0.008197
0.017753
0.021493
0.021172
0.017875
0.013501
0.011437
0.010434
0.014994
0.021034
0.019144
0.018644
0.016443
0.014282
0.019892
0.019461
0.007847
0.008395
0.012546
0.021924
0.023264
0.021782
0.015187
0.018365
0.017994
0.031194
0.043100
0.050171
0.037510
0.024591
0.056157
0.055978
0.023761
0.081385
0.062974
0.047848
0.034918
0.021721
0.007457
0.011589
0.024323
0.030708
0.029317
0.016870
0.002799
0.019383
0.098151
0.103042
0.023558
0.043153
0.031325
0.024518
0.056440
0.052454
0.033648
0.016473
0.026151
0.042278
0.019124
0.025371
0.060213
0.060969
0.026151
0.049226
0.062893
0.052763
0.064478
0.098647
0.098475
0.077864
0.077762
0.086729
0.027771
0.012624
0.012491
0.011568
0.015401
0.017303
0.004455
0.004536
0.012414
0.011485
0.004007
0.011774
0.011782
0.021557
0.021566
0.021398
0.021103
0.013516
0.019266
0.015595
0.014024
0.015300
0.017293
0.018695
0.021249
0.010127
0.012342
0.034280
0.019657
0.019709
0.015045
0.015195
0.046989
0.032649
0.032843
0.010833
0.010942
0.013432
0.020335
0.035420
0.021045
0.018760
0.021457
0.021536
0.021200
0.064407
0.053153
0.053937
0.061793
0.047028
0.020133
0.015595
0.015715
0.015378
0.016988
0.020619
0.020465
0.016800
0.018658
0.019938
0.020195
0.019592
0.020185
0.018547
0.018519
0.021354
0.012805
0.010182
0.004166
0.027749
0.021501
0.021236
0.032564
0.021845
0.019126
0.018287
0.076691
0.064873
0.015207
0.023508
0.023985
0.006020
0.015432
0.018790
0.015761
0.017314
0.021643
0.018976
0.061883
0.021938
0.032560
0.019169
0.018777
0.076960
0.016923
0.012061
0.034115
0.046948
0.041009
0.037207
0.037537
0.057099
0.048656
0.039673
0.062145
0.063356
0.057780
0.035717
0.039299
0.025438
0.019901
0.034720
0.054539
0.054715
0.047177
0.047160
0.054833
0.062195
0.069688
0.063507
0.046981
0.054856
0.063358
0.039342
0.025662
0.044448
0.054807
0.063238
0.072011
0.069679
0.056863
0.062796
0.061982
0.047681
0.054514
0.054982
0.032308
0.039187
0.039391
0.046699
0.054353
0.019500
0.016569
0.025248
0.025666
0.057730
0.045195
