# vtk DataFile Version 2.0
Unstructured Grid Example
ASCII
DATASET UNSTRUCTURED_GRID
POINTS 1221 float
0.000236 0.000345 -0.003249 
1.000060 0.000270 -0.000640 
1.000311 1.000559 0.004973 
-0.000205 1.000491 0.003648 
0.000016 -0.000603 0.046751 
0.999683 -0.000425 0.049360 
0.999938 0.999234 0.054971 
-0.000048 0.999265 0.053649 
-0.000009 0.049398 0.047727 
-0.000016 0.099399 0.048724 
-0.000034 0.149453 0.049700 
-0.000040 0.199588 0.050469 
-0.000067 0.249791 0.050942 
-0.000084 0.299890 0.051099 
-0.000084 0.349987 0.051100 
-0.000099 0.400158 0.050834 
-0.000138 0.450281 0.050192 
-0.000146 0.500296 0.049395 
-0.000160 0.550291 0.048560 
-0.000164 0.600228 0.047787 
-0.000187 0.650037 0.047289 
-0.000141 0.699761 0.047232 
-0.000104 0.749533 0.047712 
-0.000087 0.799411 0.048664 
-0.000072 0.849355 0.049821 
-0.000055 0.899290 0.051093 
-0.000040 0.949260 0.052381 
0.000191 0.050343 -0.002272 
0.000158 0.100364 -0.001263 
0.000116 0.150322 -0.000307 
0.000094 0.200222 0.000484 
0.000096 0.249999 0.000940 
0.000087 0.299962 0.001099 
0.000095 0.349900 0.001108 
0.000105 0.399739 0.000818 
0.000126 0.449633 0.000188 
0.000123 0.499572 -0.000608 
0.000134 0.549597 -0.001435 
0.000164 0.599644 -0.002215 
0.000145 0.649781 -0.002724 
0.000114 0.699972 -0.002762 
0.000069 0.750212 -0.002253 
-0.000027 0.800324 -0.001357 
-0.000086 0.850440 -0.000189 
-0.000124 0.900494 0.001077 
-0.000178 0.950491 0.002380 
0.000126 -0.000128 0.021757 
-0.000126 0.999878 0.028641 
0.050018 -0.000557 0.046999 
0.100012 -0.000493 0.047266 
0.150028 -0.000445 0.047465 
0.200048 -0.000419 0.047591 
0.250062 -0.000406 0.047650 
0.300091 -0.000399 0.047612 
0.350093 -0.000437 0.047469 
0.400114 -0.000451 0.047254 
0.450095 -0.000463 0.047049 
0.500056 -0.000459 0.046887 
0.550017 -0.000457 0.046790 
0.599973 -0.000427 0.046755 
0.649887 -0.000405 0.046872 
0.699809 -0.000341 0.047100 
0.749736 -0.000348 0.047398 
0.799700 -0.000347 0.047795 
0.849692 -0.000370 0.048210 
0.899692 -0.000376 0.048606 
0.949685 -0.000404 0.048985 
0.050236 0.000371 -0.002997 
0.100219 0.000382 -0.002743 
0.150161 0.000379 -0.002550 
0.200118 0.000386 -0.002408 
0.250089 0.000411 -0.002349 
0.300027 0.000449 -0.002381 
0.349978 0.000489 -0.002545 
0.399940 0.000532 -0.002743 
0.449930 0.000560 -0.002957 
0.499932 0.000567 -0.003117 
0.549942 0.000562 -0.003213 
0.599954 0.000550 -0.003231 
0.650004 0.000514 -0.003150 
0.700018 0.000492 -0.002913 
0.750044 0.000458 -0.002589 
0.800064 0.000381 -0.002202 
0.850064 0.000324 -0.001788 
0.900063 0.000304 -0.001396 
0.950061 0.000287 -0.001015 
0.999872 -0.000078 0.024361 
0.999703 0.049581 0.050056 
0.999733 0.099608 0.050745 
0.999755 0.149679 0.051354 
0.999777 0.199733 0.051854 
0.999767 0.249798 0.052230 
0.999827 0.299963 0.052325 
0.999856 0.350140 0.052056 
0.999888 0.400334 0.051396 
0.999963 0.450430 0.050430 
1.000020 0.500428 0.049329 
1.000056 0.550345 0.048322 
1.000104 0.600171 0.047576 
1.000130 0.649937 0.047295 
1.000050 0.699644 0.047563 
1.000015 0.749432 0.048312 
1.000029 0.799383 0.049426 
1.000006 0.849310 0.050786 
0.999958 0.899257 0.052189 
0.999948 0.949244 0.053607 
1.000077 0.050267 0.000058 
1.000091 0.100260 0.000745 
1.000109 0.150200 0.001363 
1.000106 0.200169 0.001850 
1.000123 0.250106 0.002233 
1.000101 0.299919 0.002330 
1.000097 0.349808 0.002041 
1.000068 0.399590 0.001412 
1.000032 0.449491 0.000412 
0.999997 0.499490 -0.000668 
0.999982 0.549572 -0.001682 
0.999928 0.599714 -0.002421 
0.999958 0.649915 -0.002710 
1.000038 0.700141 -0.002477 
1.000108 0.750345 -0.001682 
1.000174 0.800484 -0.000539 
1.000230 0.850572 0.000764 
1.000264 0.900568 0.002194 
1.000297 0.950575 0.003599 
1.000125 0.999897 0.029962 
0.949952 0.999259 0.054554 
0.899941 0.999339 0.054072 
0.849937 0.999383 0.053630 
0.799946 0.999430 0.053172 
0.749940 0.999467 0.052722 
0.699953 0.999533 0.052312 
0.649938 0.999574 0.051884 
0.599965 0.999703 0.051534 
0.549964 0.999707 0.051283 
0.499987 0.999754 0.051134 
0.450007 0.999762 0.051152 
0.400046 0.999691 0.051316 
0.350060 0.999660 0.051599 
0.300051 0.999618 0.051919 
0.250038 0.999537 0.052288 
0.200011 0.999477 0.052644 
0.149973 0.999443 0.052961 
0.099950 0.999375 0.053200 
0.049955 0.999294 0.053446 
0.950313 1.000542 0.004536 
0.900341 1.000540 0.004071 
0.850302 1.000502 0.003632 
0.800327 1.000504 0.003161 
0.750313 1.000505 0.002725 
0.700281 1.000502 0.002331 
0.650257 1.000506 0.001891 
0.600145 1.000393 0.001545 
0.550098 1.000373 0.001291 
0.500018 1.000326 0.001143 
0.449954 1.000280 0.001153 
0.399895 1.000325 0.001329 
0.349853 1.000332 0.001600 
0.299802 1.000368 0.001920 
0.249783 1.000422 0.002294 
0.199785 1.000451 0.002675 
0.149797 1.000440 0.002957 
0.099785 1.000470 0.003202 
0.049797 1.000488 0.003445 
0.024162 1.000032 0.022443 
0.019696 0.999630 0.038989 
0.975863 1.000057 0.023657 
0.980260 0.999623 0.040223 
0.481658 1.000034 0.026117 
0.775128 0.999975 0.027937 
0.675091 1.000026 0.027097 
0.525756 1.000042 0.026202 
0.725118 1.000007 0.027519 
0.625073 1.000077 0.026677 
0.074874 0.999905 0.028337 
0.224911 0.999971 0.027490 
0.575126 1.000043 0.026376 
0.174882 0.999960 0.027816 
0.124872 0.999940 0.028083 
0.875146 0.999954 0.028839 
0.825125 0.999955 0.028398 
0.374951 1.000006 0.026445 
0.918481 0.999931 0.029257 
0.274931 0.999978 0.027119 
0.324945 0.999994 0.026747 
0.424979 1.000008 0.026232 
0.500069 0.500311 0.050747 
0.292281 0.294786 0.052247 
0.707740 0.705102 0.048217 
0.709099 0.290698 0.051268 
0.290874 0.709275 0.048449 
0.501415 0.781299 0.048595 
0.784511 0.498265 0.049484 
0.499538 0.223050 0.051330 
0.224167 0.502993 0.050749 
0.168181 0.170336 0.050551 
0.830824 0.169447 0.050416 
0.830298 0.830497 0.049415 
0.168974 0.829877 0.049385 
0.563708 0.640840 0.048809 
0.436408 0.359521 0.052291 
0.642525 0.437871 0.050832 
0.353357 0.567323 0.050104 
0.639847 0.846550 0.049233 
0.360789 0.153417 0.050447 
0.151187 0.360643 0.051773 
0.846677 0.360333 0.051407 
0.846419 0.641365 0.047868 
0.641496 0.153276 0.049788 
0.358480 0.846122 0.049409 
0.153666 0.635017 0.048397 
0.678365 0.581592 0.048958 
0.560747 0.330888 0.051889 
0.439361 0.669455 0.048814 
0.321678 0.420423 0.051915 
0.533760 0.881754 0.049662 
0.465263 0.117473 0.049491 
0.882296 0.466006 0.049981 
0.119778 0.465861 0.050645 
0.744276 0.896084 0.050447 
0.107865 0.258156 0.051378 
0.258646 0.097476 0.049404 
0.896400 0.255507 0.051589 
0.889700 0.736762 0.047941 
0.736875 0.110171 0.049127 
0.262939 0.889286 0.050291 
0.110190 0.738266 0.047913 
0.601049 0.740041 0.048359 
0.399027 0.259851 0.052082 
0.745267 0.404824 0.050906 
0.251569 0.598071 0.049342 
0.598472 0.521213 0.050057 
0.398024 0.475246 0.051297 
0.611815 0.253906 0.051281 
0.388127 0.745931 0.048562 
0.097591 0.094375 0.048997 
0.902155 0.094467 0.049951 
0.905200 0.901823 0.051653 
0.098522 0.904857 0.051060 
0.436846 0.902868 0.049981 
0.903143 0.563371 0.048263 
0.563157 0.096517 0.048816 
0.096771 0.563415 0.048963 
0.258648 0.202043 0.051147 
0.741910 0.797079 0.048603 
0.797094 0.257977 0.051099 
0.209007 0.745272 0.048229 
0.196152 0.278725 0.051854 
0.798288 0.716092 0.048049 
0.714596 0.206412 0.050492 
0.285367 0.793081 0.048822 
0.502142 0.412184 0.051692 
0.497297 0.588630 0.049600 
0.240765 0.365426 0.052131 
0.759233 0.634487 0.048267 
0.689659 0.500975 0.049768 
0.646011 0.345406 0.051496 
0.308744 0.505163 0.050960 
0.353998 0.654852 0.048965 
0.080199 0.182973 0.050510 
0.177047 0.083868 0.049028 
0.817566 0.918607 0.051471 
0.918932 0.182152 0.051138 
0.917184 0.820434 0.049654 
0.820749 0.082494 0.049206 
0.080773 0.817055 0.049108 
0.185287 0.913705 0.051032 
0.651950 0.655552 0.048473 
0.348072 0.344679 0.052407 
0.514056 0.696647 0.048510 
0.486034 0.303555 0.052162 
0.610221 0.916923 0.050240 
0.389564 0.082629 0.048955 
0.078274 0.394729 0.051272 
0.917023 0.390084 0.051280 
0.925040 0.660379 0.047485 
0.660379 0.074693 0.048309 
0.339765 0.924679 0.050551 
0.074318 0.661355 0.047690 
0.431209 0.821570 0.049008 
0.821075 0.566079 0.048497 
0.568612 0.177603 0.050390 
0.179416 0.567206 0.049445 
0.190332 0.431601 0.051474 
0.573749 0.818218 0.048882 
0.426700 0.178646 0.050841 
0.821636 0.427233 0.050569 
0.565572 0.457754 0.050997 
0.435371 0.542390 0.050371 
0.774253 0.331290 0.051339 
0.225370 0.668372 0.048445 
0.667645 0.781175 0.048487 
0.333277 0.218148 0.051524 
0.677310 0.929959 0.050758 
0.068466 0.317802 0.051362 
0.322735 0.069319 0.048849 
0.930173 0.322680 0.051906 
0.745779 0.559699 0.048852 
0.447859 0.736450 0.048555 
0.552033 0.263172 0.051565 
0.614197 0.595077 0.049097 
0.386017 0.406181 0.052043 
0.258538 0.443422 0.051617 
0.585514 0.393045 0.051465 
0.414604 0.607374 0.049562 
0.450664 0.428348 0.051699 
0.548674 0.572480 0.049626 
0.484792 0.934491 0.050336 
0.934720 0.515551 0.049049 
0.515253 0.064862 0.048235 
0.065157 0.515475 0.049530 
0.500174 0.838247 0.049101 
0.837977 0.507615 0.049250 
0.500372 0.151897 0.050125 
0.153415 0.501486 0.050336 
0.696680 0.842513 0.049254 
0.303902 0.156555 0.050525 
0.842241 0.302727 0.051541 
0.149241 0.702102 0.047945 
0.159554 0.231058 0.051336 
0.842020 0.772876 0.048363 
0.773066 0.157842 0.049971 
0.226785 0.841587 0.049561 
0.669959 0.238031 0.050979 
0.329998 0.761612 0.048539 
0.696905 0.355800 0.051300 
0.303011 0.644450 0.048952 
0.939703 0.606677 0.047648 
0.606497 0.059991 0.047979 
0.393824 0.939396 0.050544 
0.060166 0.606839 0.048069 
0.700336 0.433559 0.050631 
0.303829 0.558943 0.050137 
0.054417 0.053560 0.048035 
0.945292 0.053720 0.049710 
0.945843 0.944852 0.053099 
0.054492 0.945234 0.052126 
0.772714 0.945462 0.051752 
0.055584 0.232176 0.051010 
0.226916 0.053873 0.048569 
0.945192 0.771127 0.048598 
0.771403 0.054504 0.048460 
0.228985 0.944427 0.051427 
0.946312 0.226817 0.051723 
0.054861 0.771189 0.048157 
0.219970 0.159876 0.050455 
0.775255 0.846961 0.049538 
0.847364 0.224485 0.051060 
0.155615 0.774284 0.048450 
0.553184 0.947540 0.050565 
[...]
POINT_DATA 1221
SCALARS u float 1
LOOKUP_TABLE default
0.116279
0.024746
0.177958
0.130847
0.117300
0.029488
0.178526
0.132124
0.083453
0.050061
0.022165
0.022221
0.034349
0.039308
0.039145
0.030326
0.013017
0.024467
0.052469
0.079166
0.096477
0.098755
0.082971
0.051910
0.023897
0.046300
0.088516
0.081845
0.046973
0.016317
0.019201
0.033550
0.039150
0.039629
0.030717
0.015316
0.026762
0.053109
0.079846
0.097145
0.098124
0.080364
0.049527
0.017277
0.042290
0.086473
0.115301
0.129382
0.108339
0.098619
0.091371
0.086803
0.084663
0.086012
0.091228
0.098847
0.106069
0.111723
0.115085
0.116159
0.112022
0.103859
0.093636
0.079948
0.065812
0.052404
0.040346
0.107536
0.098606
0.091692
0.086669
0.084721
0.086020
0.092000
0.099192
0.106851
0.112476
0.115812
0.116355
0.113303
0.104851
0.093342
0.079365
0.064525
0.050754
0.037498
0.023304
0.018341
0.031353
0.050138
0.066971
0.079890
0.082762
0.073341
0.051096
0.021618
0.028258
0.060835
0.086323
0.096141
0.087423
0.063212
0.029931
0.037133
0.082084
0.130829
0.010077
0.028206
0.049040
0.066047
0.079459
0.082846
0.072859
0.052246
0.023279
0.029830
0.061591
0.086562
0.096256
0.088081
0.061071
0.026440
0.034837
0.080967
0.129785
0.176231
0.163769
0.146436
0.130725
0.114396
0.098491
0.083728
0.068585
0.055471
0.046720
0.041178
0.041747
0.048016
0.058064
0.069470
0.082869
0.095680
0.106954
0.115737
0.124848
0.162524
0.146275
0.130590
0.114206
0.099009
0.085226
0.070063
0.056819
0.047824
0.042194
0.042127
0.048708
0.058242
0.069738
0.083157
0.096603
0.106364
0.115110
0.123717
0.126260
0.127516
0.169359
0.171143
0.039681
0.104351
0.074517
0.042691
0.089515
0.059633
0.118584
0.088451
0.048901
0.100064
0.109550
0.136388
0.120715
0.051318
0.151195
0.075270
0.062057
0.043737
0.028817
0.079976
0.063347
0.045045
0.055088
0.050069
0.020602
0.047750
0.028174
0.022833
0.017972
0.027196
0.026893
0.043029
0.081481
0.031127
0.010837
0.028534
0.019817
0.063146
0.050313
0.075804
0.013982
0.023068
0.057340
0.037344
0.067146
0.043268
0.068055
0.014983
0.023060
0.012684
0.024936
0.023667
0.049105
0.024165
0.057112
0.073753
0.032217
0.016241
0.074662
0.058300
0.074016
0.032889
0.025365
0.011141
0.046899
0.045521
0.051127
0.038556
0.014617
0.062169
0.042737
0.007626
0.062151
0.044384
0.038293
0.041828
0.050093
0.039785
0.063216
0.066406
0.069319
0.018978
0.043160
0.060786
0.017629
0.075683
0.061665
0.012692
0.053252
0.035289
0.037458
0.022438
0.037573
0.055742
0.042192
0.023196
0.031256
0.037015
0.040857
0.054347
0.085524
0.053029
0.076845
0.012380
0.039958
0.045484
0.045923
0.089401
0.061403
0.022835
0.082194
0.036037
0.053904
0.017683
0.022876
0.052521
0.039883
0.032199
0.023063
0.036230
0.016717
0.047595
0.055482
0.053800
0.054794
0.030099
0.048532
0.042665
0.067921
0.041034
0.051318
0.055865
0.033163
0.073089
0.057694
0.052327
0.018379
0.061190
0.016814
0.013860
0.035745
0.064646
0.019746
0.033242
0.029075
0.013003
0.016070
0.029344
0.020692
0.054963
0.073040
0.047732
0.059199
0.008448
0.020421
0.035144
0.052277
0.046231
0.037825
0.083728
0.073075
0.021778
0.069169
0.024343
0.012614
0.072420
0.020025
0.113006
0.079268
0.064941
0.036211
0.052585
0.052919
0.056482
0.053199
0.062384
0.067422
0.019095
0.024975
0.038627
0.057135
0.022129
0.018748
0.067891
0.024010
0.063035
0.078150
0.016734
0.018219
0.055493
0.066207
0.074724
0.038826
0.050635
0.055947
0.084805
0.082641
0.058614
0.059802
0.081865
0.022302
0.062432
0.031837
0.091224
0.036504
0.042866
0.022420
0.075572
0.012948
0.052438
0.012388
0.041232
0.057660
0.046143
0.012027
0.020468
0.014128
0.033321
0.065715
0.063466
0.036003
0.058605
0.078823
0.066835
0.049505
0.049211
0.041501
0.082560
0.068851
0.086726
0.042447
0.019937
0.013589
0.022722
0.024525
0.041736
0.023370
0.018949
0.029686
0.039764
0.047859
0.024300
0.044821
0.048860
0.051038
0.008604
0.079199
0.037360
0.062476
0.065211
0.022774
0.033748
0.042647
0.020246
0.072156
0.071344
0.018906
0.038318
0.029588
0.010560
0.018600
0.059602
0.024772
0.063120
0.083628
0.048520
0.037329
0.016607
0.019079
0.010367
0.033957
0.032330
0.012048
0.054922
0.048677
0.038822
0.042483
0.013925
0.065747
0.054018
0.042279
0.055065
0.072393
0.024125
0.033801
0.038779
0.028410
0.063341
0.021973
0.036787
0.038618
0.044314
0.063250
0.062076
0.070405
0.030698
0.048836
0.013838
0.040414
0.022989
0.020615
0.018776
0.060172
0.064612
0.043935
0.059989
0.018978
0.066004
0.051302
0.091647
0.022210
0.053651
0.035606
0.072348
0.056410
0.080161
0.072659
0.022049
0.057074
0.011845
0.046854
0.058170
0.033084
0.039636
0.064218
0.071658
0.029505
0.052981
0.050333
0.067725
0.062180
0.045071
0.082184
0.042882
0.077244
0.044983
0.091958
0.086863
0.090030
0.052467
0.054649
0.083185
0.010966
0.032897
0.032440
0.047208
0.056931
0.032474
0.036051
0.011719
0.029187
0.033793
0.069491
0.039064
0.023290
0.051367
0.013233
0.019682
0.022655
0.067132
0.013419
0.042180
0.054201
0.040156
0.043795
0.041236
0.023307
0.021344
0.050514
0.011517
0.051323
0.029744
0.025253
0.047161
0.012600
0.019915
0.050725
0.048312
0.019059
0.024570
0.016642
0.083457
0.026461
0.010117
0.050404
0.062420
0.083960
0.043002
0.015864
0.046616
0.051289
0.074803
0.019234
0.114535
0.031190
0.083532
0.051805
0.086660
0.036927
0.042387
0.043508
0.040271
0.049018
0.046070
0.040526
0.010617
0.080000
0.084584
0.059657
0.043049
0.028952
0.012340
0.016163
0.013742
0.009808
0.025269
0.050033
0.080772
0.073557
0.030947
0.028173
0.016140
0.057611
0.068873
0.042695
0.055328
0.043311
0.068124
0.074112
0.034363
0.037524
0.026493
0.041152
0.092268
0.030723
0.028448
0.031238
0.047975
0.053654
0.046980
0.065160
0.012987
0.037649
0.049447
0.061566
0.019253
0.062599
0.021092
0.054385
0.045798
0.038886
0.022501
0.056796
0.070601
0.007672
0.024111
0.060357
0.048931
0.065365
0.009985
0.012046
0.020487
0.051441
0.069432
0.019046
0.021871
0.063427
0.032700
0.092438
0.090228
0.085796
0.039098
0.093715
0.024377
0.144543
0.104690
0.047372
0.050451
0.011367
0.049322
0.077268
0.046686
0.050643
0.043213
0.072092
0.053036
0.018547
0.058151
0.036967
0.039018
0.020968
0.031404
0.048785
0.038839
0.056599
0.010652
0.049949
0.046999
0.030407
0.011095
0.013947
0.051426
0.013485
0.153092
0.157916
0.010987
0.016691
0.037477
0.083816
0.040998
0.005869
0.052967
0.103380
0.073357
0.057621
0.038269
0.018047
0.079900
0.004043
0.033290
0.063691
0.074570
0.093661
0.075722
0.094779
0.029291
0.029883
0.111222
0.112443
0.112157
0.083068
0.056476
0.070716
0.042878
0.085145
0.087231
0.093106
0.083940
0.100774
0.093677
0.107822
0.086916
0.101333
0.114300
0.107918
0.098070
0.114675
0.027306
0.079423
0.062790
0.046242
0.057293
0.050579
0.020604
0.048055
0.026908
0.021991
0.017648
0.025821
0.024908
0.043272
0.080959
0.031841
0.007899
0.029203
0.022916
0.063125
0.050918
0.075127
0.017997
0.022960
0.058163
0.036797
0.068627
0.064613
0.042665
0.017167
0.025602
0.014647
0.026332
0.025602
0.049957
0.025438
0.056001
0.074055
0.032293
0.017082
0.073325
0.058407
0.073095
0.035069
0.026822
0.006874
0.046139
0.046115
0.052319
0.037592
0.010232
0.062286
0.041389
0.009587
0.061284
0.045530
0.039501
0.041674
0.050730
0.040199
0.062122
0.065096
0.069360
0.022050
0.042116
0.060738
0.015591
0.076239
0.061511
0.009956
0.036050
0.054686
0.038446
0.020213
0.037280
0.056333
0.040795
0.020978
0.030081
0.034657
0.040188
0.053945
0.053301
0.085360
0.075834
0.016740
0.041186
0.045194
0.046454
0.090096
0.062917
0.022838
0.084248
0.035595
0.053813
0.020636
0.025180
0.052700
0.040915
0.035625
0.023071
0.035596
0.014800
0.053171
0.046109
0.056204
0.054607
0.032440
0.049371
0.043727
0.067976
0.040553
0.052182
0.057178
0.032180
0.072727
0.056277
0.052015
0.016822
0.060910
0.014749
0.015923
0.037914
0.065575
0.021835
0.032848
0.030152
0.020072
0.017114
0.030894
0.021637
0.053527
0.073657
0.048404
0.059533
0.009099
0.018670
0.035655
0.051100
0.046022
0.038079
0.082657
0.073547
0.023196
0.069660
0.009140
0.018038
0.070822
0.013956
0.111192
0.077501
0.065213
0.036955
0.052198
0.050594
0.057402
0.054843
0.061294
0.062820
0.018863
0.023896
0.038748
0.055231
0.024655
0.018853
0.068533
0.025531
0.063874
0.078837
0.021146
0.018315
0.060187
0.068037
0.073891
0.039496
0.050086
0.055664
0.082540
0.082833
0.058459
0.055823
0.082138
0.019110
0.062174
0.030152
0.090671
0.034496
0.039747
0.016309
0.074105
0.016947
0.051836
0.041912
0.058053
0.046154
0.035889
0.016078
0.021976
0.018440
0.032223
0.064775
0.064512
0.036160
0.057447
0.078234
0.066521
0.048761
0.049800
0.041052
0.083252
0.070973
0.088337
0.043036
0.019197
0.010217
0.019198
0.021602
0.041115
0.024269
0.013783
0.028334
0.039138
0.048700
0.024640
0.042743
0.049466
0.053149
0.008384
0.078486
0.039674
0.062307
0.064921
0.020081
0.032757
0.072981
0.071256
0.021083
0.037650
0.028517
0.012544
0.020247
0.060172
0.025066
0.064809
0.084515
0.049344
0.033720
0.014127
0.015236
0.012408
0.035962
0.033676
0.014753
0.056042
0.048798
0.039281
0.042413
0.010885
0.066115
0.056232
0.042957
0.055784
0.072005
0.014831
0.022567
0.032501
0.035743
0.027268
0.062705
0.037430
0.017744
0.015183
0.041596
0.045360
0.064544
0.062854
0.071025
0.030233
0.048526
0.011378
0.039949
0.021499
0.016972
0.019262
0.064168
0.059484
0.045003
0.062064
0.013697
0.065635
0.049836
0.092137
0.019093
0.053269
0.032413
0.071807
0.073461
0.052427
0.084279
0.022295
0.023573
0.055071
0.041087
0.007810
0.046222
0.058489
0.046635
0.033061
0.018448
0.039769
0.063144
0.072013
0.028921
0.053851
0.050468
0.064813
0.070064
0.044784
0.041670
0.076993
0.045462
0.091891
0.088637
0.093470
0.056221
0.051446
0.082494
0.012407
0.035661
0.032104
0.046154
0.054358
0.032430
0.021511
0.013830
0.031179
0.033583
0.069917
0.041363
0.023216
0.050397
0.017509
0.021353
0.022223
0.066860
0.018471
0.042302
0.055191
0.038479
0.044229
0.044105
0.049984
0.008143
0.050071
0.029078
0.025536
0.047436
0.015904
0.022457
0.050908
0.018973
0.084054
0.028498
0.013818
0.043219
0.050798
0.063340
0.084668
0.044671
0.016845
0.045000
0.048709
0.075073
0.014502
0.113891
0.028824
0.082151
0.048850
0.085612
0.037426
0.079888
0.043195
0.041619
0.059338
0.049747
0.045620
0.047192
0.037597
0.007586
0.081929
0.042584
0.030701
0.013367
0.084585
0.011210
0.013973
0.024973
0.056787
0.084110
0.073681
0.030063
0.021706
0.026839
0.070597
0.057388
0.057329
0.044094
0.067744
0.074167
0.035879
0.036957
0.081393
0.029123
0.043065
0.092828
0.032289
0.029818
0.031518
0.046941
0.053314
0.050031
0.047798
0.067255
0.012641
0.038899
0.061242
0.017479
0.062659
0.022059
0.053501
0.044153
0.047287
0.030132
0.057473
0.071062
0.008527
0.023647
0.060868
0.049577
0.026148
0.064854
0.013602
0.021391
0.050085
0.067956
0.020523
0.022438
0.062341
0.033812
0.092320
0.090783
0.086504
0.039316
0.092712
0.019050
0.143246
0.102841
0.049176
0.051485
0.048239
0.077522
0.047086
0.051866
0.024743
0.010991
0.044067
0.071386
0.052236
0.020961
0.058911
0.037836
0.038264
0.018207
0.029579
0.047434
0.039017
0.055350
0.006441
0.049474
0.047743
0.014297
0.016406
0.052397
0.015921
0.107660
0.112843
0.098483
0.102464
0.032403
0.037309
0.065660
0.028511
0.016481
0.062087
0.028177
0.006681
0.027219
0.058470
0.040184
0.007283
0.036495
0.019637
0.089427
0.065305
0.092065
0.099904
