# vtk DataFile Version 2.0
Unstructured Grid Example
ASCII
DATASET UNSTRUCTURED_GRID
POINTS 1221 float
-0.000682 -0.000998 0.009394 
0.999828 -0.000780 0.001851 
0.999099 0.998384 -0.014378 
0.000594 0.998579 -0.010547 
-0.000045 0.001742 0.059395 
1.000916 0.001229 0.051849 
1.000178 1.002216 0.035629 
0.000140 1.002124 0.039450 
0.000027 0.051741 0.056571 
0.000047 0.101739 0.053688 
0.000098 0.151580 0.050868 
0.000116 0.201192 0.048643 
0.000193 0.250605 0.047275 
0.000242 0.300319 0.046823 
0.000244 0.350037 0.046821 
0.000287 0.399545 0.047589 
0.000399 0.449189 0.049446 
0.000422 0.499144 0.051750 
0.000463 0.549159 0.054165 
0.000476 0.599341 0.056397 
0.000542 0.649893 0.057839 
0.000407 0.700691 0.058004 
0.000300 0.751351 0.056616 
0.000252 0.801704 0.053862 
0.000209 0.851865 0.050517 
0.000160 0.902052 0.046839 
0.000116 0.952138 0.043115 
-0.000553 0.049008 0.006569 
-0.000458 0.098949 0.003650 
-0.000334 0.149068 0.000887 
-0.000273 0.199358 -0.001400 
-0.000277 0.250004 -0.002719 
-0.000252 0.300110 -0.003177 
-0.000275 0.350289 -0.003203 
-0.000304 0.400753 -0.002366 
-0.000365 0.451062 -0.000543 
-0.000356 0.501239 0.001758 
-0.000387 0.551165 0.004148 
-0.000474 0.601028 0.006405 
-0.000419 0.650634 0.007877 
-0.000329 0.700080 0.007986 
-0.000199 0.749386 0.006514 
0.000077 0.799063 0.003923 
0.000248 0.848727 0.000546 
0.000359 0.898573 -0.003115 
0.000513 0.948580 -0.006880 
-0.000364 0.000369 0.034378 
0.000364 1.000352 0.014473 
0.049947 0.001611 0.058677 
0.099967 0.001425 0.057906 
0.149919 0.001287 0.057330 
0.199861 0.001211 0.056965 
0.249820 0.001173 0.056794 
0.299738 0.001153 0.056906 
0.349730 0.001262 0.057318 
0.399670 0.001305 0.057938 
0.449727 0.001339 0.058531 
0.499837 0.001327 0.059002 
0.549950 0.001320 0.059281 
0.600079 0.001234 0.059381 
0.650327 0.001171 0.059044 
0.700551 0.000987 0.058384 
0.750764 0.001008 0.057522 
0.800866 0.001005 0.056376 
0.850892 0.001071 0.055177 
0.900890 0.001086 0.054031 
0.950912 0.001168 0.052934 
0.049316 -0.001074 0.008667 
0.099368 -0.001103 0.007931 
0.149533 -0.001094 0.007374 
0.199660 -0.001117 0.006963 
0.249744 -0.001190 0.006793 
0.299923 -0.001299 0.006885 
0.350063 -0.001414 0.007359 
0.400174 -0.001539 0.007930 
0.450203 -0.001618 0.008550 
0.500196 -0.001638 0.009012 
0.550167 -0.001625 0.009291 
0.600134 -0.001589 0.009343 
0.649989 -0.001487 0.009109 
0.699947 -0.001423 0.008421 
0.749874 -0.001324 0.007486 
0.799816 -0.001102 0.006368 
0.849815 -0.000937 0.005168 
0.899819 -0.000879 0.004036 
0.949824 -0.000831 0.002934 
1.000371 0.000225 0.026848 
1.000858 0.051212 0.049838 
1.000773 0.101135 0.047847 
1.000709 0.150928 0.046086 
1.000645 0.200772 0.044638 
1.000674 0.250583 0.043554 
1.000501 0.300107 0.043278 
1.000416 0.349596 0.044054 
1.000323 0.399033 0.045965 
1.000107 0.448758 0.048756 
0.999942 0.498763 0.051941 
0.999837 0.549003 0.054851 
0.999700 0.599505 0.057008 
0.999625 0.650182 0.057820 
0.999856 0.701029 0.057045 
0.999956 0.751641 0.054880 
0.999916 0.801784 0.051660 
0.999983 0.851995 0.047726 
1.000120 0.902149 0.043670 
1.000149 0.952186 0.039571 
0.999778 0.049228 -0.000169 
0.999736 0.099247 -0.002155 
0.999686 0.149422 -0.003940 
0.999693 0.199512 -0.005349 
0.999645 0.249694 -0.006456 
0.999709 0.300234 -0.006738 
0.999719 0.350556 -0.005902 
0.999802 0.401186 -0.004082 
0.999909 0.451473 -0.001191 
1.000008 0.501475 0.001931 
1.000053 0.551237 0.004862 
1.000207 0.600826 0.007000 
1.000120 0.650247 0.007836 
0.999890 0.699593 0.007162 
0.999688 0.749003 0.004864 
0.999498 0.798601 0.001558 
0.999336 0.848346 -0.002208 
0.999236 0.898359 -0.006342 
0.999141 0.948336 -0.010405 
0.999639 1.000298 0.010652 
0.950139 1.002143 0.036834 
0.900170 1.001910 0.038227 
0.850182 1.001784 0.039503 
0.800156 1.001647 0.040830 
0.750174 1.001542 0.042129 
0.700135 1.001352 0.043316 
0.650178 1.001232 0.044554 
0.600101 1.000860 0.045565 
0.550105 1.000848 0.046291 
0.500037 1.000711 0.046722 
0.449979 1.000687 0.046670 
0.399867 1.000893 0.046194 
0.349825 1.000982 0.045377 
0.299854 1.001104 0.044452 
0.249891 1.001340 0.043385 
0.199968 1.001513 0.042355 
0.150077 1.001611 0.041438 
0.100143 1.001807 0.040748 
0.050130 1.002041 0.040038 
0.949094 0.998433 -0.013114 
0.899015 0.998439 -0.011771 
0.849128 0.998547 -0.010502 
0.799055 0.998543 -0.009139 
0.749096 0.998541 -0.007880 
0.699187 0.998548 -0.006740 
0.649258 0.998536 -0.005466 
0.599581 0.998863 -0.004467 
0.549717 0.998921 -0.003732 
0.499947 0.999058 -0.003305 
0.450133 0.999191 -0.003332 
0.400302 0.999061 -0.003843 
0.350425 0.999039 -0.004626 
0.300572 0.998935 -0.005551 
0.250626 0.998778 -0.006633 
0.200623 0.998696 -0.007735 
0.150587 0.998729 -0.008550 
0.100623 0.998641 -0.009257 
0.050588 0.998588 -0.009961 
0.024722 0.999908 0.008613 
0.020068 1.001069 0.025088 
0.975207 0.999836 0.005103 
0.980060 1.001089 0.021519 
0.481692 0.999901 0.021769 
0.774628 1.000072 0.016508 
0.674737 0.999926 0.018936 
0.525697 0.999877 0.021525 
0.724658 0.999980 0.017716 
0.624789 0.999777 0.020152 
0.075365 1.000276 0.015351 
0.225259 1.000085 0.017800 
0.574956 0.999875 0.021021 
0.175341 1.000117 0.016857 
0.125369 1.000173 0.016086 
0.874578 1.000134 0.013899 
0.824639 1.000131 0.015174 
0.375142 0.999982 0.020822 
0.917906 1.000199 0.012693 
0.275201 1.000063 0.018872 
0.325160 1.000017 0.019948 
0.425062 0.999976 0.021438 
0.499800 0.499102 0.047840 
0.292422 0.295425 0.043503 
0.707451 0.704999 0.055155 
0.709005 0.290916 0.046335 
0.291074 0.709160 0.054484 
0.501210 0.781744 0.054062 
0.784286 0.497252 0.051491 
0.499388 0.223818 0.046154 
0.224524 0.502029 0.047836 
0.168319 0.171623 0.048408 
0.831479 0.170359 0.048797 
0.830377 0.832423 0.051690 
0.169106 0.831594 0.051778 
0.563465 0.639987 0.053443 
0.436199 0.358969 0.043377 
0.642199 0.436848 0.047593 
0.353428 0.566208 0.049700 
0.639739 0.847484 0.052217 
0.360702 0.154717 0.048708 
0.151636 0.360308 0.044873 
0.847016 0.359750 0.045932 
0.846030 0.641068 0.056164 
0.641609 0.154564 0.050613 
0.358463 0.847175 0.051708 
0.154145 0.634408 0.054635 
0.678021 0.581148 0.053013 
0.560496 0.330631 0.044537 
0.439194 0.668379 0.053431 
0.321949 0.420133 0.044464 
0.533768 0.882739 0.050977 
0.465141 0.119041 0.051470 
0.882267 0.464617 0.050054 
0.120280 0.464898 0.048136 
0.744411 0.898004 0.048707 
0.108170 0.258526 0.046016 
0.258592 0.098759 0.051722 
0.897089 0.256218 0.045406 
0.889459 0.737824 0.055953 
0.737496 0.110915 0.052524 
0.263042 0.890655 0.049158 
0.110483 0.739236 0.056035 
0.600824 0.739979 0.054746 
0.398957 0.260333 0.043982 
0.745170 0.404068 0.047382 
0.251985 0.597068 0.051902 
0.598140 0.520059 0.049834 
0.398048 0.474268 0.046250 
0.611638 0.254099 0.046297 
0.388004 0.745637 0.054158 
0.097621 0.096001 0.052899 
0.903114 0.095737 0.050141 
0.905227 0.904072 0.045220 
0.098690 0.907076 0.046937 
0.436831 0.903701 0.050056 
0.902908 0.562540 0.055022 
0.563160 0.098078 0.053424 
0.097343 0.562414 0.052999 
0.258738 0.203083 0.046682 
0.741636 0.797809 0.054039 
0.797532 0.258716 0.046823 
0.209130 0.745986 0.055121 
0.196324 0.279672 0.044638 
0.797918 0.716117 0.055640 
0.714774 0.207204 0.048577 
0.285333 0.794261 0.053405 
0.501880 0.411179 0.045109 
0.497105 0.587502 0.051157 
0.241052 0.365302 0.043839 
0.758932 0.634142 0.055012 
0.689265 0.499991 0.050670 
0.645826 0.345028 0.045673 
0.308854 0.504158 0.047225 
0.354134 0.654064 0.052993 
0.080382 0.184417 0.048526 
0.177051 0.085503 0.052809 
0.817663 0.920748 0.045748 
0.919811 0.183151 0.046708 
0.917282 0.822589 0.050999 
0.821677 0.083650 0.052295 
0.081044 0.819142 0.052578 
0.185406 0.915682 0.047015 
0.651734 0.655173 0.054415 
0.348147 0.344244 0.043041 
0.513957 0.696231 0.054308 
0.485781 0.303185 0.043749 
0.610149 0.917906 0.049307 
0.389338 0.084241 0.053022 
0.078727 0.394316 0.046323 
0.917404 0.389459 0.046299 
0.924740 0.660839 0.057271 
0.660838 0.076033 0.054890 
0.339680 0.925967 0.048406 
0.074829 0.661696 0.056680 
0.431176 0.822408 0.052869 
0.820745 0.565306 0.054346 
0.568500 0.178804 0.048872 
0.180004 0.566077 0.051606 
0.190670 0.431250 0.045737 
0.573562 0.818606 0.053233 
0.426631 0.179965 0.047568 
0.821664 0.426014 0.048354 
0.565177 0.456994 0.047118 
0.435197 0.541273 0.048928 
0.774357 0.331060 0.046128 
0.225773 0.667895 0.054496 
0.667312 0.781197 0.054375 
0.333383 0.219092 0.045593 
0.677422 0.931433 0.047808 
0.068788 0.318158 0.046063 
0.322676 0.070670 0.053327 
0.930816 0.322607 0.044488 
0.745482 0.559277 0.053321 
0.447773 0.736249 0.054177 
0.551781 0.263779 0.045476 
0.613909 0.594187 0.052610 
0.385885 0.405195 0.044092 
0.258759 0.442807 0.045325 
0.585225 0.392475 0.045764 
0.414433 0.606313 0.051267 
0.450515 0.427211 0.045089 
0.548464 0.571367 0.051081 
0.484745 0.935264 0.049029 
0.934601 0.514263 0.052749 
0.515124 0.066606 0.055103 
0.065755 0.514481 0.051358 
0.500211 0.839270 0.052599 
0.837859 0.506343 0.052170 
0.500249 0.153232 0.049639 
0.153938 0.500429 0.049028 
0.696668 0.843901 0.052157 
0.303939 0.157543 0.048483 
0.842670 0.303106 0.045543 
0.149648 0.702282 0.055940 
0.159712 0.231646 0.046138 
0.841782 0.774105 0.054732 
0.773556 0.158619 0.050085 
0.226874 0.843033 0.051268 
0.670016 0.238608 0.047170 
0.330049 0.762341 0.054224 
0.696889 0.355502 0.046241 
0.303356 0.643777 0.053029 
0.939371 0.606060 0.056800 
0.606579 0.061515 0.055843 
0.393688 0.940490 0.048426 
0.060755 0.605997 0.055582 
0.700022 0.432560 0.048176 
0.304055 0.557688 0.049603 
0.054430 0.055695 0.055682 
0.946411 0.055234 0.050838 
0.946029 0.947682 0.041039 
0.054633 0.947885 0.043852 
0.772828 0.947508 0.044934 
0.055838 0.232672 0.047080 
0.226760 0.055361 0.054137 
0.945102 0.773098 0.054054 
0.772299 0.055777 0.054453 
0.228917 0.946204 0.045873 
0.947153 0.227870 0.045018 
0.055257 0.772932 0.055329 
0.220038 0.160988 0.048683 
0.775431 0.849019 0.051335 
0.847832 0.225325 0.046936 
0.155721 0.775970 0.054482 
0.553217 0.948561 0.048365 
[...]
POINT_DATA 1221
SCALARS u float 1
LOOKUP_TABLE default
0.116279
0.024746
0.177958
0.130847
0.117300
0.029488
0.178526
0.132124
0.083453
0.050061
0.022165
0.022221
0.034349
0.039308
0.039145
0.030326
0.013017
0.024467
0.052469
0.079166
0.096477
0.098755
0.082971
0.051910
0.023897
0.046300
0.088516
0.081845
0.046973
0.016317
0.019201
0.033550
0.039150
0.039629
0.030717
0.015316
0.026762
0.053109
0.079846
0.097145
0.098124
0.080364
0.049527
0.017277
0.042290
0.086473
0.115301
0.129382
0.108339
0.098619
0.091371
0.086803
0.084663
0.086012
0.091228
0.098847
0.106069
0.111723
0.115085
0.116159
0.112022
0.103859
0.093636
0.079948
0.065812
0.052404
0.040346
0.107536
0.098606
0.091692
0.086669
0.084721
0.086020
0.092000
0.099192
0.106851
0.112476
0.115812
0.116355
0.113303
0.104851
0.093342
0.079365
0.064525
0.050754
0.037498
0.023304
0.018341
0.031353
0.050138
0.066971
0.079890
0.082762
0.073341
0.051096
0.021618
0.028258
0.060835
0.086323
0.096141
0.087423
0.063212
0.029931
0.037133
0.082084
0.130829
0.010077
0.028206
0.049040
0.066047
0.079459
0.082846
0.072859
0.052246
0.023279
0.029830
0.061591
0.086562
0.096256
0.088081
0.061071
0.026440
0.034837
0.080967
0.129785
0.176231
0.163769
0.146436
0.130725
0.114396
0.098491
0.083728
0.068585
0.055471
0.046720
0.041178
0.041747
0.048016
0.058064
0.069470
0.082869
0.095680
0.106954
0.115737
0.124848
0.162524
0.146275
0.130590
0.114206
0.099009
0.085226
0.070063
0.056819
0.047824
0.042194
0.042127
0.048708
0.058242
0.069738
0.083157
0.096603
0.106364
0.115110
0.123717
0.126260
0.127516
0.169359
0.171143
0.039681
0.104351
0.074517
0.042691
0.089515
0.059633
0.118584
0.088451
0.048901
0.100064
0.109550
0.136388
0.120715
0.051318
0.151195
0.075270
0.062057
0.043737
0.028817
0.079976
0.063347
0.045045
0.055088
0.050069
0.020602
0.047750
0.028174
0.022833
0.017972
0.027196
0.026893
0.043029
0.081481
0.031127
0.010837
0.028534
0.019817
0.063146
0.050313
0.075804
0.013982
0.023068
0.057340
0.037344
0.067146
0.043268
0.068055
0.014983
0.023060
0.012684
0.024936
0.023667
0.049105
0.024165
0.057112
0.073753
0.032217
0.016241
0.074662
0.058300
0.074016
0.032889
0.025365
0.011141
0.046899
0.045521
0.051127
0.038556
0.014617
0.062169
0.042737
0.007626
0.062151
0.044384
0.038293
0.041828
0.050093
0.039785
0.063216
0.066406
0.069319
0.018978
0.043160
0.060786
0.017629
0.075683
0.061665
0.012692
0.053252
0.035289
0.037458
0.022438
0.037573
0.055742
0.042192
0.023196
0.031256
0.037015
0.040857
0.054347
0.085524
0.053029
0.076845
0.012380
0.039958
0.045484
0.045923
0.089401
0.061403
0.022835
0.082194
0.036037
0.053904
0.017683
0.022876
0.052521
0.039883
0.032199
0.023063
0.036230
0.016717
0.047595
0.055482
0.053800
0.054794
0.030099
0.048532
0.042665
0.067921
0.041034
0.051318
0.055865
0.033163
0.073089
0.057694
0.052327
0.018379
0.061190
0.016814
0.013860
0.035745
0.064646
0.019746
0.033242
0.029075
0.013003
0.016070
0.029344
0.020692
0.054963
0.073040
0.047732
0.059199
0.008448
0.020421
0.035144
0.052277
0.046231
0.037825
0.083728
0.073075
0.021778
0.069169
0.024343
0.012614
0.072420
0.020025
0.113006
0.079268
0.064941
0.036211
0.052585
0.052919
0.056482
0.053199
0.062384
0.067422
0.019095
0.024975
0.038627
0.057135
0.022129
0.018748
0.067891
0.024010
0.063035
0.078150
0.016734
0.018219
0.055493
0.066207
0.074724
0.038826
0.050635
0.055947
0.084805
0.082641
0.058614
0.059802
0.081865
0.022302
0.062432
0.031837
0.091224
0.036504
0.042866
0.022420
0.075572
0.012948
0.052438
0.012388
0.041232
0.057660
0.046143
0.012027
0.020468
0.014128
0.033321
0.065715
0.063466
0.036003
0.058605
0.078823
0.066835
0.049505
0.049211
0.041501
0.082560
0.068851
0.086726
0.042447
0.019937
0.013589
0.022722
0.024525
0.041736
0.023370
0.018949
0.029686
0.039764
0.047859
0.024300
0.044821
0.048860
0.051038
0.008604
0.079199
0.037360
0.062476
0.065211
0.022774
0.033748
0.042647
0.020246
0.072156
0.071344
0.018906
0.038318
0.029588
0.010560
0.018600
0.059602
0.024772
0.063120
0.083628
0.048520
0.037329
0.016607
0.019079
0.010367
0.033957
0.032330
0.012048
0.054922
0.048677
0.038822
0.042483
0.013925
0.065747
0.054018
0.042279
0.055065
0.072393
0.024125
0.033801
0.038779
0.028410
0.063341
0.021973
0.036787
0.038618
0.044314
0.063250
0.062076
0.070405
0.030698
0.048836
0.013838
0.040414
0.022989
0.020615
0.018776
0.060172
0.064612
0.043935
0.059989
0.018978
0.066004
0.051302
0.091647
0.022210
0.053651
0.035606
0.072348
0.056410
0.080161
0.072659
0.022049
0.057074
0.011845
0.046854
0.058170
0.033084
0.039636
0.064218
0.071658
0.029505
0.052981
0.050333
0.067725
0.062180
0.045071
0.082184
0.042882
0.077244
0.044983
0.091958
0.086863
0.090030
0.052467
0.054649
0.083185
0.010966
0.032897
0.032440
0.047208
0.056931
0.032474
0.036051
0.011719
0.029187
0.033793
0.069491
0.039064
0.023290
0.051367
0.013233
0.019682
0.022655
0.067132
0.013419
0.042180
0.054201
0.040156
0.043795
0.041236
0.023307
0.021344
0.050514
0.011517
0.051323
0.029744
0.025253
0.047161
0.012600
0.019915
0.050725
0.048312
0.019059
0.024570
0.016642
0.083457
0.026461
0.010117
0.050404
0.062420
0.083960
0.043002
0.015864
0.046616
0.051289
0.074803
0.019234
0.114535
0.031190
0.083532
0.051805
0.086660
0.036927
0.042387
0.043508
0.040271
0.049018
0.046070
0.040526
0.010617
0.080000
0.084584
0.059657
0.043049
0.028952
0.012340
0.016163
0.013742
0.009808
0.025269
0.050033
0.080772
0.073557
0.030947
0.028173
0.016140
0.057611
0.068873
0.042695
0.055328
0.043311
0.068124
0.074112
0.034363
0.037524
0.026493
0.041152
0.092268
0.030723
0.028448
0.031238
0.047975
0.053654
0.046980
0.065160
0.012987
0.037649
0.049447
0.061566
0.019253
0.062599
0.021092
0.054385
0.045798
0.038886
0.022501
0.056796
0.070601
0.007672
0.024111
0.060357
0.048931
0.065365
0.009985
0.012046
0.020487
0.051441
0.069432
0.019046
0.021871
0.063427
0.032700
0.092438
0.090228
0.085796
0.039098
0.093715
0.024377
0.144543
0.104690
0.047372
0.050451
0.011367
0.049322
0.077268
0.046686
0.050643
0.043213
0.072092
0.053036
0.018547
0.058151
0.036967
0.039018
0.020968
0.031404
0.048785
0.038839
0.056599
0.010652
0.049949
0.046999
0.030407
0.011095
0.013947
0.051426
0.013485
0.153092
0.157916
0.010987
0.016691
0.037477
0.083816
0.040998
0.005869
0.052967
0.103380
0.073357
0.057621
0.038269
0.018047
0.079900
0.004043
0.033290
0.063691
0.074570
0.093661
0.075722
0.094779
0.029291
0.029883
0.111222
0.112443
0.112157
0.083068
0.056476
0.070716
0.042878
0.085145
0.087231
0.093106
0.083940
0.100774
0.093677
0.107822
0.086916
0.101333
0.114300
0.107918
0.098070
0.114675
0.027306
0.079423
0.062790
0.046242
0.057293
0.050579
0.020604
0.048055
0.026908
0.021991
0.017648
0.025821
0.024908
0.043272
0.080959
0.031841
0.007899
0.029203
0.022916
0.063125
0.050918
0.075127
0.017997
0.022960
0.058163
0.036797
0.068627
0.064613
0.042665
0.017167
0.025602
0.014647
0.026332
0.025602
0.049957
0.025438
0.056001
0.074055
0.032293
0.017082
0.073325
0.058407
0.073095
0.035069
0.026822
0.006874
0.046139
0.046115
0.052319
0.037592
0.010232
0.062286
0.041389
0.009587
0.061284
0.045530
0.039501
0.041674
0.050730
0.040199
0.062122
0.065096
0.069360
0.022050
0.042116
0.060738
0.015591
0.076239
0.061511
0.009956
0.036050
0.054686
0.038446
0.020213
0.037280
0.056333
0.040795
0.020978
0.030081
0.034657
0.040188
0.053945
0.053301
0.085360
0.075834
0.016740
0.041186
0.045194
0.046454
0.090096
0.062917
0.022838
0.084248
0.035595
0.053813
0.020636
0.025180
0.052700
0.040915
0.035625
0.023071
0.035596
0.014800
0.053171
0.046109
0.056204
0.054607
0.032440
0.049371
0.043727
0.067976
0.040553
0.052182
0.057178
0.032180
0.072727
0.056277
0.052015
0.016822
0.060910
0.014749
0.015923
0.037914
0.065575
0.021835
0.032848
0.030152
0.020072
0.017114
0.030894
0.021637
0.053527
0.073657
0.048404
0.059533
0.009099
0.018670
0.035655
0.051100
0.046022
0.038079
0.082657
0.073547
0.023196
0.069660
0.009140
0.018038
0.070822
0.013956
0.111192
0.077501
0.065213
0.036955
0.052198
0.050594
0.057402
0.054843
0.061294
0.062820
0.018863
0.023896
0.038748
0.055231
0.024655
0.018853
0.068533
0.025531
0.063874
0.078837
0.021146
0.018315
0.060187
0.068037
0.073891
0.039496
0.050086
0.055664
0.082540
0.082833
0.058459
0.055823
0.082138
0.019110
0.062174
0.030152
0.090671
0.034496
0.039747
0.016309
0.074105
0.016947
0.051836
0.041912
0.058053
0.046154
0.035889
0.016078
0.021976
0.018440
0.032223
0.064775
0.064512
0.036160
0.057447
0.078234
0.066521
0.048761
0.049800
0.041052
0.083252
0.070973
0.088337
0.043036
0.019197
0.010217
0.019198
0.021602
0.041115
0.024269
0.013783
0.028334
0.039138
0.048700
0.024640
0.042743
0.049466
0.053149
0.008384
0.078486
0.039674
0.062307
0.064921
0.020081
0.032757
0.072981
0.071256
0.021083
0.037650
0.028517
0.012544
0.020247
0.060172
0.025066
0.064809
0.084515
0.049344
0.033720
0.014127
0.015236
0.012408
0.035962
0.033676
0.014753
0.056042
0.048798
0.039281
0.042413
0.010885
0.066115
0.056232
0.042957
0.055784
0.072005
0.014831
0.022567
0.032501
0.035743
0.027268
0.062705
0.037430
0.017744
0.015183
0.041596
0.045360
0.064544
0.062854
0.071025
0.030233
0.048526
0.011378
0.039949
0.021499
0.016972
0.019262
0.064168
0.059484
0.045003
0.062064
0.013697
0.065635
0.049836
0.092137
0.019093
0.053269
0.032413
0.071807
0.073461
0.052427
0.084279
0.022295
0.023573
0.055071
0.041087
0.007810
0.046222
0.058489
0.046635
0.033061
0.018448
0.039769
0.063144
0.072013
0.028921
0.053851
0.050468
0.064813
0.070064
0.044784
0.041670
0.076993
0.045462
0.091891
0.088637
0.093470
0.056221
0.051446
0.082494
0.012407
0.035661
0.032104
0.046154
0.054358
0.032430
0.021511
0.013830
0.031179
0.033583
0.069917
0.041363
0.023216
0.050397
0.017509
0.021353
0.022223
0.066860
0.018471
0.042302
0.055191
0.038479
0.044229
0.044105
0.049984
0.008143
0.050071
0.029078
0.025536
0.047436
0.015904
0.022457
0.050908
0.018973
0.084054
0.028498
0.013818
0.043219
0.050798
0.063340
0.084668
0.044671
0.016845
0.045000
0.048709
0.075073
0.014502
0.113891
0.028824
0.082151
0.048850
0.085612
0.037426
0.079888
0.043195
0.041619
0.059338
0.049747
0.045620
0.047192
0.037597
0.007586
0.081929
0.042584
0.030701
0.013367
0.084585
0.011210
0.013973
0.024973
0.056787
0.084110
0.073681
0.030063
0.021706
0.026839
0.070597
0.057388
0.057329
0.044094
0.067744
0.074167
0.035879
0.036957
0.081393
0.029123
0.043065
0.092828
0.032289
0.029818
0.031518
0.046941
0.053314
0.050031
0.047798
0.067255
0.012641
0.038899
0.061242
0.017479
0.062659
0.022059
0.053501
0.044153
0.047287
0.030132
0.057473
0.071062
0.008527
0.023647
0.060868
0.049577
0.026148
0.064854
0.013602
0.021391
0.050085
0.067956
0.020523
0.022438
0.062341
0.033812
0.092320
0.090783
0.086504
0.039316
0.092712
0.019050
0.143246
0.102841
0.049176
0.051485
0.048239
0.077522
0.047086
0.051866
0.024743
0.010991
0.044067
0.071386
0.052236
0.020961
0.058911
0.037836
0.038264
0.018207
0.029579
0.047434
0.039017
0.055350
0.006441
0.049474
0.047743
0.014297
0.016406
0.052397
0.015921
0.107660
0.112843
0.098483
0.102464
0.032403
0.037309
0.065660
0.028511
0.016481
0.062087
0.028177
0.006681
0.027219
0.058470
0.040184
0.007283
0.036495
0.019637
0.089427
0.065305
0.092065
0.099904
