# vtk DataFile Version 2.0
Unstructured Grid Example
ASCII
DATASET UNSTRUCTURED_GRID
POINTS 1221 float
0.000114 0.000014 -0.000018 
0.999605 0.000155 -0.002335 
1.000038 0.999994 0.000299 
0.000226 0.999739 -0.001763 
-0.000039 0.000088 0.049983 
1.000252 -0.000301 0.047674 
0.999941 0.999993 0.050299 
-0.000260 1.000131 0.048236 
-0.000033 0.050087 0.049900 
-0.000048 0.100092 0.049793 
-0.000059 0.150089 0.049668 
-0.000072 0.200065 0.049541 
-0.000107 0.250067 0.049418 
-0.000123 0.300048 0.049326 
-0.000135 0.350006 0.049312 
-0.000101 0.399960 0.049454 
-0.000030 0.449902 0.049789 
0.000005 0.499892 0.050233 
0.000104 0.549892 0.050717 
0.000147 0.599901 0.051116 
0.000191 0.649975 0.051369 
0.000179 0.700088 0.051330 
0.000108 0.750143 0.050992 
0.000061 0.800159 0.050474 
-0.000050 0.850098 0.049817 
-0.000133 0.900135 0.049253 
-0.000227 0.950149 0.048715 
0.000119 0.050012 -0.000099 
0.000136 0.099992 -0.000209 
0.000144 0.149976 -0.000334 
0.000137 0.199970 -0.000467 
0.000112 0.249970 -0.000577 
0.000087 0.299979 -0.000678 
0.000054 0.350028 -0.000686 
0.000003 0.400090 -0.000540 
-0.000070 0.450110 -0.000210 
-0.000103 0.500176 0.000230 
-0.000173 0.550143 0.000711 
-0.000200 0.600120 0.001103 
-0.000229 0.650048 0.001366 
-0.000210 0.699942 0.001320 
-0.000137 0.749834 0.000990 
-0.000029 0.799819 0.000453 
0.000062 0.849756 -0.000144 
0.000116 0.899738 -0.000717 
0.000210 0.949748 -0.001281 
0.000037 0.000051 0.024982 
-0.000019 0.999937 0.023252 
0.049963 0.000079 0.050126 
0.099991 0.000050 0.050215 
0.150041 0.000013 0.050175 
0.200084 -0.000050 0.050019 
0.250106 -0.000075 0.049818 
0.300106 -0.000091 0.049593 
0.350064 -0.000097 0.049399 
0.400023 -0.000099 0.049332 
0.449946 -0.000075 0.049447 
0.499866 -0.000026 0.049817 
0.549829 0.000071 0.050363 
0.599838 0.000131 0.050892 
0.649888 0.000188 0.051347 
0.699991 0.000185 0.051546 
0.750123 0.000149 0.051402 
0.800219 0.000068 0.050867 
0.850251 0.000025 0.050100 
0.900255 -0.000082 0.049281 
0.950243 -0.000214 0.048406 
0.050105 0.000011 0.000127 
0.100055 0.000022 0.000206 
0.149979 0.000051 0.000188 
0.199960 0.000046 0.000020 
0.249950 0.000032 -0.000178 
0.299926 0.000016 -0.000405 
0.349964 0.000002 -0.000596 
0.400034 -0.000022 -0.000670 
0.450121 -0.000046 -0.000548 
0.500205 -0.000077 -0.000187 
0.550204 -0.000110 0.000353 
0.600170 -0.000138 0.000885 
0.650133 -0.000186 0.001336 
0.700033 -0.000179 0.001552 
0.749878 -0.000137 0.001364 
0.799721 -0.000021 0.000836 
0.849655 0.000067 0.000102 
0.899601 0.000104 -0.000729 
0.949585 0.000174 -0.001569 
0.999927 -0.000070 0.022690 
1.000238 0.049723 0.048223 
1.000147 0.099698 0.048920 
1.000032 0.149711 0.049542 
0.999975 0.199723 0.050348 
0.999927 0.249795 0.050951 
0.999844 0.299969 0.051266 
0.999815 0.350043 0.051389 
0.999818 0.400150 0.051186 
0.999863 0.450183 0.050755 
0.999927 0.500173 0.050271 
0.999964 0.550119 0.049853 
1.000039 0.600058 0.049589 
1.000065 0.649994 0.049492 
1.000055 0.699966 0.049598 
1.000017 0.749942 0.049797 
0.999995 0.799951 0.050006 
0.999977 0.849974 0.050166 
0.999956 0.899985 0.050244 
0.999945 0.949993 0.050283 
0.999692 0.050156 -0.001743 
0.999784 0.100222 -0.001078 
0.999941 0.150172 -0.000380 
1.000036 0.200219 0.000349 
1.000094 0.250187 0.000965 
1.000201 0.300058 0.001275 
1.000222 0.349966 0.001395 
1.000242 0.399855 0.001188 
1.000212 0.449817 0.000753 
1.000146 0.499841 0.000275 
1.000113 0.549909 -0.000147 
1.000031 0.599961 -0.000415 
0.999977 0.650020 -0.000500 
0.999960 0.700067 -0.000405 
0.999965 0.750090 -0.000209 
0.999978 0.800072 -0.000002 
1.000001 0.850035 0.000164 
1.000015 0.900004 0.000246 
1.000030 0.949997 0.000281 
0.999990 0.999993 0.025296 
0.949946 1.000000 0.050187 
0.899941 1.000026 0.050041 
0.849938 1.000047 0.049896 
0.799942 1.000065 0.049733 
0.749945 1.000081 0.049571 
0.699975 1.000074 0.049464 
0.649993 1.000075 0.049417 
0.600049 1.000068 0.049459 
0.550091 1.000061 0.049642 
0.500129 1.000000 0.049987 
0.450130 0.999950 0.050387 
0.400141 0.999883 0.050776 
0.350081 0.999858 0.051110 
0.299950 0.999873 0.051205 
0.249850 0.999906 0.051025 
0.199791 0.999961 0.050584 
0.149779 0.999972 0.050008 
0.099778 1.000023 0.049442 
0.049737 1.000116 0.048818 
0.950038 0.999993 0.000182 
0.900056 0.999985 0.000038 
0.850042 0.999976 -0.000099 
0.800065 0.999961 -0.000277 
0.750061 0.999957 -0.000429 
0.700042 0.999962 -0.000540 
0.650017 0.999969 -0.000588 
0.599975 0.999991 -0.000538 
0.549924 1.000019 -0.000351 
0.499883 1.000092 -0.000021 
0.449909 1.000135 0.000378 
0.399881 1.000198 0.000786 
0.349886 1.000208 0.001113 
0.299980 1.000185 0.001227 
0.250078 1.000114 0.001028 
0.200132 1.000003 0.000535 
0.150144 0.999922 0.000005 
0.100219 0.999858 -0.000548 
0.050213 0.999783 -0.001187 
0.024342 0.999900 0.017397 
0.019677 1.000019 0.033874 
0.975695 0.999994 0.019134 
0.980179 0.999994 0.035672 
0.481669 1.000053 0.025124 
0.775002 1.000016 0.024649 
0.675007 1.000024 0.024428 
0.525743 1.000045 0.024775 
0.725003 1.000022 0.024509 
0.625014 1.000024 0.024421 
0.074983 0.999948 0.024115 
0.224959 0.999988 0.025805 
0.575091 1.000038 0.024543 
0.174970 0.999970 0.025283 
0.124991 0.999936 0.024730 
0.875004 1.000008 0.024970 
0.824995 1.000015 0.024817 
0.374988 1.000046 0.025959 
0.918333 1.000004 0.025102 
0.274952 1.000026 0.026147 
0.324968 1.000036 0.026207 
0.425008 1.000037 0.025592 
0.499957 0.499984 0.050759 
0.292299 0.294924 0.050660 
0.707693 0.705063 0.050535 
0.709070 0.290788 0.049147 
0.291010 0.709210 0.049109 
0.501328 0.781477 0.049765 
0.784513 0.497934 0.049532 
0.499548 0.223181 0.049433 
0.224201 0.502818 0.049592 
0.168205 0.170681 0.050320 
0.831003 0.169717 0.050307 
0.830305 0.831007 0.050151 
0.169024 0.830278 0.050138 
0.563599 0.640645 0.050612 
0.436391 0.359294 0.050646 
0.642563 0.437441 0.049803 
0.353282 0.567132 0.049651 
0.639799 0.846884 0.049982 
0.360844 0.153640 0.049829 
0.151191 0.360624 0.049933 
0.846612 0.360269 0.049834 
0.846385 0.641248 0.049854 
0.641448 0.153741 0.049894 
0.358540 0.846267 0.049832 
0.153932 0.634848 0.049854 
0.678341 0.581434 0.050512 
0.560756 0.330726 0.049520 
0.439246 0.669224 0.049678 
0.321627 0.420403 0.050492 
0.533780 0.882057 0.049706 
0.465166 0.117926 0.049502 
0.882221 0.465729 0.049801 
0.119891 0.465606 0.049714 
0.744275 0.896646 0.049894 
0.107848 0.258319 0.049978 
0.258691 0.097743 0.050039 
0.896528 0.255679 0.050427 
0.889682 0.737006 0.049957 
0.736978 0.110487 0.050655 
0.262994 0.889535 0.050437 
0.110402 0.738511 0.050298 
0.600993 0.740056 0.050412 
0.399096 0.259848 0.050265 
0.745220 0.404603 0.049163 
0.251729 0.597848 0.049202 
0.598401 0.520883 0.050692 
0.397925 0.475067 0.050509 
0.611765 0.253965 0.049161 
0.388044 0.745870 0.049231 
0.097572 0.094851 0.050168 
0.902467 0.094786 0.049716 
0.905184 0.902430 0.050126 
0.098477 0.905423 0.049812 
0.436890 0.903038 0.049976 
0.903111 0.563172 0.049584 
0.563063 0.096990 0.049976 
0.097028 0.563104 0.050157 
0.258696 0.202269 0.050392 
0.741843 0.797322 0.050299 
0.797148 0.258261 0.049782 
0.209133 0.745381 0.049625 
0.196182 0.278956 0.050429 
0.798258 0.716065 0.050223 
0.714565 0.206754 0.049717 
0.285431 0.793246 0.049567 
0.502082 0.411858 0.050589 
0.497169 0.588375 0.050459 
0.240731 0.365454 0.050405 
0.759229 0.634349 0.050236 
0.689664 0.500606 0.050029 
0.646021 0.345242 0.049130 
0.308668 0.504994 0.049875 
0.353984 0.654684 0.049161 
0.080190 0.183413 0.049967 
0.177085 0.084285 0.050235 
0.817560 0.919208 0.049962 
0.919139 0.182274 0.050115 
0.917187 0.821000 0.050106 
0.821054 0.082799 0.050439 
0.080881 0.817669 0.050149 
0.185248 0.914191 0.050303 
0.651890 0.655468 0.050688 
0.348037 0.344581 0.050784 
0.513939 0.696582 0.050123 
0.486064 0.303320 0.049903 
0.610215 0.917226 0.049626 
0.389539 0.082965 0.049505 
0.078288 0.394655 0.049604 
0.916963 0.390004 0.050484 
0.925045 0.660468 0.049648 
0.660442 0.075223 0.050765 
0.339782 0.924880 0.050576 
0.074636 0.661455 0.050700 
0.431266 0.821713 0.049597 
0.821060 0.565818 0.049690 
0.568525 0.178003 0.049423 
0.179673 0.566878 0.049556 
0.190308 0.431578 0.049826 
0.573665 0.818382 0.049945 
0.426746 0.178894 0.049605 
0.821557 0.426959 0.049482 
0.565581 0.457414 0.050487 
0.435252 0.542136 0.050322 
0.774205 0.331264 0.049320 
0.225616 0.668226 0.049302 
0.667574 0.781205 0.050354 
0.333325 0.218309 0.050305 
0.677321 0.930427 0.049639 
0.068427 0.317967 0.049623 
0.322782 0.069578 0.049680 
0.930172 0.322682 0.050807 
0.745779 0.559538 0.050018 
0.447765 0.736423 0.049551 
0.551999 0.263295 0.049320 
0.614113 0.594844 0.050741 
0.385903 0.405944 0.050727 
0.258462 0.443373 0.050078 
0.585539 0.392765 0.049825 
0.414478 0.607146 0.049810 
0.450530 0.428086 0.050751 
0.548545 0.572217 0.050723 
0.484831 0.934643 0.049905 
0.934637 0.515291 0.049862 
0.515089 0.065361 0.049788 
0.065402 0.515174 0.050088 
0.500197 0.838580 0.049688 
0.837928 0.507291 0.049525 
0.500329 0.152283 0.049443 
0.153536 0.501205 0.049651 
0.696654 0.842958 0.050087 
0.303953 0.156725 0.050098 
0.842240 0.302895 0.049957 
0.149498 0.702109 0.049944 
0.159527 0.231256 0.050291 
0.841986 0.773175 0.050142 
0.773127 0.158149 0.050354 
0.226852 0.841853 0.050141 
0.669912 0.238281 0.049267 
0.330073 0.761734 0.049217 
0.696890 0.355709 0.049037 
0.303117 0.644298 0.049024 
0.939657 0.606528 0.049553 
0.606422 0.060488 0.050563 
0.393885 0.939578 0.050418 
0.060445 0.606568 0.050683 
0.700355 0.433172 0.049411 
0.303833 0.558711 0.049444 
0.054396 0.054185 0.050086 
0.945815 0.053913 0.048881 
0.945843 0.945575 0.050190 
0.054320 0.946008 0.049238 
0.772709 0.946051 0.049781 
0.055566 0.232375 0.049731 
0.226944 0.054198 0.050035 
0.945181 0.771590 0.049953 
0.771728 0.054939 0.050931 
0.228874 0.944789 0.050670 
0.946524 0.226931 0.050507 
0.055060 0.771737 0.050547 
0.220018 0.160131 0.050323 
0.775275 0.847528 0.050116 
0.847430 0.224786 0.050182 
0.155685 0.774701 0.050040 
0.553203 0.947868 0.049653 
[...]
POINT_DATA 1221
SCALARS u float 1
LOOKUP_TABLE default
0.012203
0.249696
0.031727
0.189035
0.010310
0.248150
0.032021
0.188094
0.014346
0.024348
0.036732
0.049382
0.062643
0.072209
0.073744
0.058558
0.024696
0.027057
0.077095
0.118838
0.145451
0.141533
0.106089
0.052998
0.022485
0.081075
0.138118
0.016396
0.026299
0.038336
0.051321
0.061955
0.071914
0.072452
0.057627
0.025991
0.032327
0.078427
0.118584
0.145763
0.140792
0.106632
0.051359
0.030474
0.081201
0.139147
0.006870
0.183988
0.016151
0.023248
0.018912
0.010433
0.023505
0.045284
0.064367
0.071104
0.058991
0.023971
0.042844
0.096324
0.143544
0.163798
0.148885
0.094394
0.028552
0.080722
0.171133
0.017381
0.022506
0.020627
0.006733
0.019752
0.043364
0.062820
0.070590
0.059233
0.030337
0.044412
0.095861
0.142612
0.164428
0.144828
0.092692
0.038538
0.088124
0.171684
0.243292
0.190820
0.118967
0.057042
0.046858
0.102675
0.134214
0.147523
0.127238
0.083032
0.034675
0.020268
0.043846
0.053899
0.042836
0.022323
0.005204
0.017882
0.026080
0.030376
0.186964
0.117987
0.044337
0.043467
0.103918
0.135890
0.148693
0.128459
0.084532
0.036830
0.021747
0.044003
0.052648
0.043338
0.024216
0.007949
0.017647
0.025957
0.029770
0.031149
0.020430
0.008090
0.013679
0.029566
0.046333
0.057011
0.061879
0.057564
0.039368
0.013672
0.043262
0.083903
0.118069
0.127544
0.109390
0.065369
0.023436
0.063246
0.128024
0.019547
0.007352
0.011582
0.030214
0.045825
0.057112
0.061979
0.056619
0.037802
0.015823
0.043248
0.086159
0.119719
0.130592
0.109134
0.058005
0.017228
0.063911
0.128913
0.157335
0.162725
0.025797
0.027032
0.014206
0.036980
0.060245
0.024192
0.051721
0.060998
0.093332
0.084820
0.048215
0.030104
0.029167
0.003312
0.019368
0.101007
0.010764
0.120750
0.127111
0.062428
0.079984
0.069481
0.056373
0.089793
0.094183
0.025914
0.050146
0.060272
0.044002
0.033673
0.032506
0.016047
0.015270
0.064586
0.068638
0.030069
0.039336
0.010274
0.022887
0.015351
0.025343
0.017401
0.019736
0.023138
0.021532
0.054473
0.052043
0.035061
0.053572
0.031388
0.053169
0.023680
0.030153
0.013797
0.012482
0.009928
0.045253
0.007122
0.070398
0.047309
0.034504
0.043418
0.032235
0.088158
0.084196
0.072860
0.055209
0.088284
0.081058
0.018912
0.030694
0.013778
0.021868
0.007276
0.043895
0.012835
0.020938
0.041597
0.032003
0.025736
0.041408
0.045148
0.024655
0.034101
0.048477
0.062362
0.049083
0.044599
0.026537
0.016925
0.092016
0.019472
0.088470
0.009967
0.025083
0.007411
0.018696
0.011472
0.046703
0.018101
0.032829
0.072348
0.082654
0.016724
0.020469
0.039745
0.052848
0.043149
0.054205
0.038145
0.083059
0.062252
0.076192
0.043636
0.034027
0.061792
0.048220
0.022868
0.009703
0.043146
0.055420
0.054712
0.034889
0.072081
0.075004
0.037391
0.033322
0.039198
0.042373
0.035480
0.086689
0.009966
0.047900
0.071702
0.078013
0.076993
0.019908
0.025363
0.022290
0.079724
0.076465
0.012317
0.017224
0.026728
0.014186
0.033702
0.049971
0.058754
0.036757
0.013287
0.014296
0.014552
0.017623
0.031806
0.015334
0.039557
0.019074
0.078090
0.082966
0.101349
0.102720
0.047249
0.061056
0.046258
0.073312
0.064306
0.059508
0.012347
0.122045
0.020591
0.083613
0.024217
0.030528
0.010070
0.006841
0.099129
0.071884
0.055787
0.059412
0.034240
0.013173
0.021897
0.006412
0.037139
0.044639
0.056530
0.029229
0.017232
0.008560
0.025555
0.015691
0.016026
0.029121
0.036483
0.035386
0.029700
0.063268
0.063510
0.069920
0.056938
0.061099
0.065163
0.011678
0.025072
0.038901
0.005475
0.023788
0.018486
0.021259
0.017811
0.033101
0.036366
0.064686
0.062493
0.086569
0.075574
0.064441
0.024545
0.048599
0.021341
0.057459
0.041821
0.057193
0.068064
0.059581
0.039006
0.025435
0.014858
0.070398
0.028655
0.119402
0.092899
0.090817
0.026471
0.023243
0.014412
0.016515
0.058849
0.065353
0.054678
0.016257
0.043042
0.024444
0.014957
0.016536
0.098401
0.099949
0.014481
0.038247
0.026563
0.032761
0.011138
0.079500
0.062564
0.077869
0.077626
0.033801
0.013983
0.042644
0.050737
0.018305
0.021278
0.023800
0.040943
0.027955
0.031744
0.032091
0.055392
0.012711
0.049820
0.029477
0.026793
0.034121
0.040194
0.020815
0.032359
0.057453
0.078714
0.073825
0.057280
0.015629
0.039447
0.050126
0.023983
0.095811
0.008513
0.024106
0.015883
0.008879
0.017328
0.049716
0.032651
0.052210
0.057410
0.058812
0.107129
0.044193
0.023268
0.035047
0.016952
0.009575
0.009721
0.008873
0.022306
0.047507
0.053471
0.069187
0.075744
0.026143
0.018359
0.018510
0.015519
0.010745
0.054610
0.018048
0.029936
0.039984
0.026472
0.023922
0.026954
0.026586
0.077379
0.079957
0.061594
0.051770
0.031512
0.020733
0.070161
0.062505
0.018967
0.024596
0.046572
0.050801
0.075567
0.081156
0.072096
0.075698
0.100600
0.043777
0.126249
0.115072
0.019629
0.025726
0.023871
0.026091
0.039689
0.008793
0.036064
0.028555
0.023798
0.058978
0.059570
0.047903
0.047306
0.064240
0.079887
0.030465
0.043439
0.046438
0.029464
0.024851
0.034857
0.031587
0.023712
0.018415
0.007695
0.092227
0.092510
0.047356
0.029113
0.036967
0.022548
0.005151
0.069520
0.045103
0.024948
0.027024
0.039050
0.032058
0.055181
0.053900
0.073953
0.025609
0.038677
0.018616
0.002401
0.044294
0.040035
0.021107
0.071157
0.050158
0.013206
0.010060
0.021344
0.096955
0.012285
0.080294
0.022460
0.065226
0.057919
0.033290
0.021555
0.032298
0.056297
0.101520
0.102993
0.021186
0.012454
0.050960
0.075516
0.064198
0.043199
0.070259
0.049073
0.054609
0.042756
0.036118
0.026794
0.045820
0.039719
0.080573
0.076773
0.035760
0.025242
0.046129
0.043161
0.023689
0.052443
0.061656
0.047649
0.123108
0.008553
0.042463
0.031767
0.012039
0.013129
0.035173
0.009767
0.073793
0.073863
0.009816
0.045064
0.046853
0.031040
0.017629
0.031605
0.073995
0.080236
0.029024
0.015793
0.048585
0.032000
0.092786
0.088330
0.021074
0.013993
0.022279
0.017119
0.073042
0.054045
0.063719
0.040664
0.020520
0.011175
0.017559
0.020893
0.020028
0.015307
0.050847
0.038448
0.049340
0.107651
0.111442
0.085612
0.009744
0.179815
0.025942
0.134242
0.070370
0.040867
0.072643
0.061130
0.067600
0.093622
0.096535
0.010978
0.023773
0.032388
0.037772
0.066792
0.043100
0.025402
0.011661
0.014737
0.012314
0.078152
0.084960
0.082426
0.072319
0.029439
0.070465
0.027790
0.012200
0.047747
0.017753
0.030746
0.031045
0.217483
0.223010
0.012189
0.122444
0.009536
0.011263
0.022995
0.028721
0.067959
0.003674
0.080348
0.144002
0.146768
0.054777
0.102909
0.140828
0.033017
0.050129
0.032535
0.049716
0.208630
0.215285
0.009100
0.008010
0.006682
0.030688
0.035241
0.050266
0.125140
0.119810
0.012608
0.023954
0.007462
0.021973
0.069140
0.045178
0.054738
0.066960
0.117892
0.156113
0.158862
0.068213
0.078376
0.068791
0.056731
0.091006
0.094870
0.025754
0.045821
0.063646
0.045876
0.033059
0.031094
0.016194
0.016133
0.064796
0.067283
0.031849
0.037516
0.008632
0.018323
0.008447
0.031073
0.015017
0.019301
0.024408
0.023153
0.053976
0.053161
0.052010
0.035080
0.029616
0.056129
0.029094
0.032464
0.012375
0.010001
0.004976
0.045135
0.006595
0.070489
0.048757
0.036745
0.043323
0.025860
0.090154
0.086262
0.072387
0.054482
0.090069
0.083422
0.020103
0.039013
0.013683
0.026268
0.015039
0.043005
0.018538
0.026658
0.041021
0.032340
0.025518
0.038557
0.044278
0.025076
0.032186
0.046753
0.063482
0.048772
0.044203
0.026515
0.015802
0.016395
0.093802
0.089581
0.014376
0.024146
0.005298
0.022054
0.011667
0.045012
0.022044
0.032125
0.072863
0.017696
0.081034
0.018556
0.038391
0.050744
0.041072
0.053766
0.036939
0.082533
0.063956
0.077258
0.042138
0.030119
0.060776
0.046859
0.018235
0.009856
0.039611
0.057753
0.055745
0.035156
0.037834
0.069843
0.073395
0.033041
0.039436
0.040029
0.033552
0.085796
0.007246
0.049569
0.074210
0.078218
0.077187
0.011492
0.025052
0.022430
0.080635
0.076235
0.015639
0.024662
0.028916
0.022118
0.032698
0.049805
0.064112
0.038444
0.010837
0.011601
0.017878
0.015903
0.034138
0.015493
0.038233
0.019222
0.074410
0.080530
0.099974
0.100251
0.046228
0.061017
0.051616
0.074812
0.055413
0.056495
0.015026
0.119326
0.019893
0.088062
0.023206
0.030143
0.005886
0.008215
0.100530
0.068289
0.058817
0.058035
0.033743
0.013460
0.022114
0.003813
0.035469
0.046072
0.056381
0.031560
0.014361
0.006776
0.023297
0.019828
0.060450
0.024150
0.036638
0.035936
0.027778
0.015161
0.068311
0.070074
0.057438
0.062802
0.040337
0.015990
0.024358
0.042383
0.002916
0.028909
0.017564
0.024814
0.016978
0.047359
0.035247
0.064091
0.087032
0.077393
0.078974
0.080846
0.022947
0.049455
0.026338
0.056573
0.043509
0.053549
0.065971
0.058809
0.039590
0.011725
0.023434
0.070112
0.028587
0.122835
0.095884
0.093790
0.027901
0.022006
0.014103
0.018335
0.057154
0.061845
0.030205
0.014077
0.042527
0.024472
0.014615
0.014028
0.099030
0.099833
0.018275
0.036074
0.026745
0.034150
0.009160
0.080504
0.062886
0.033661
0.013898
0.042260
0.049252
0.019363
0.021714
0.021314
0.041116
0.030238
0.034764
0.034116
0.058409
0.012795
0.045708
0.028237
0.027034
0.038111
0.044159
0.023587
0.028344
0.058081
0.077688
0.073950
0.057230
0.010935
0.038908
0.048882
0.021683
0.094611
0.068172
0.007675
0.024087
0.013441
0.008344
0.017431
0.034845
0.040775
0.046512
0.051840
0.054731
0.055371
0.107064
0.043656
0.023214
0.034976
0.019404
0.008672
0.015018
0.015520
0.022608
0.053313
0.047917
0.069745
0.076394
0.028811
0.018339
0.011770
0.013597
0.011090
0.057524
0.021488
0.028716
0.022312
0.046649
0.070754
0.074922
0.021039
0.021373
0.023323
0.076846
0.080466
0.061401
0.057342
0.051567
0.058205
0.027135
0.016377
0.070375
0.062706
0.019712
0.025607
0.052858
0.049906
0.075738
0.072857
0.075109
0.102115
0.043979
0.129650
0.119059
0.019145
0.015670
0.021499
0.030056
0.038059
0.006029
0.036084
0.026703
0.022334
0.060055
0.048351
0.046413
0.045480
0.063256
0.081407
0.031002
0.042897
0.049529
0.031146
0.024316
0.031347
0.032403
0.027815
0.014563
0.009509
0.089572
0.091246
0.037639
0.022242
0.005722
0.066081
0.043173
0.019675
0.026900
0.036841
0.032893
0.028021
0.042168
0.021851
0.010246
0.021617
0.043837
0.038056
0.019764
0.070229
0.051835
0.050273
0.013837
0.020496
0.096142
0.010907
0.082569
0.022085
0.068149
0.058573
0.035430
0.037851
0.031805
0.054039
0.064533
0.102313
0.102937
0.013401
0.019933
0.012694
0.051787
0.041181
0.071779
0.050133
0.074699
0.060705
0.034536
0.030021
0.040556
0.061043
0.081232
0.076626
0.057019
0.035046
0.044101
0.046492
0.052019
0.059950
0.045576
0.122094
0.009481
0.045995
0.081463
0.028396
0.016787
0.020046
0.040817
0.016434
0.069873
0.071133
0.006883
0.032219
0.045035
0.047369
0.030450
0.014369
0.074391
0.081124
0.030129
0.015202
0.047959
0.031357
0.093707
0.092262
0.020515
0.014106
0.019308
0.017450
0.074430
0.055727
0.070947
0.063244
0.019155
0.008662
0.018495
0.014083
0.019618
0.009301
0.051207
0.038519
0.048581
0.106257
0.110624
0.088766
0.012520
0.180025
0.025226
0.133874
0.072677
0.042324
0.061292
0.067624
0.093535
0.096718
0.076299
0.074468
0.010618
0.022575
0.030422
0.037793
0.067185
0.040897
0.024780
0.013898
0.015103
0.014751
0.074571
0.082721
0.082334
0.072316
0.027543
0.028697
0.015787
0.045389
0.020784
0.162124
0.166907
0.009543
0.008724
0.043124
0.066791
0.075435
0.015209
0.048299
0.109301
0.054620
0.041922
0.028547
0.018017
0.073800
0.006909
0.066958
0.040380
0.133007
0.097748
0.123242
0.145986
