# vtk DataFile Version 2.0
Unstructured Grid Example
ASCII
DATASET UNSTRUCTURED_GRID
POINTS 2044 float
1.200764 -0.100759 0.220575 
-0.077623 1.166516 0.204790 
-0.796550 -0.070274 -0.245255 
-0.095561 -0.809007 -0.242128 
-0.040287 -0.029971 0.997336 
1.211161 -0.197540 0.270088 
1.210766 -0.280584 0.303585 
1.192859 -0.361574 0.318605 
1.148008 -0.445638 0.297430 
1.079164 -0.518485 0.261027 
0.992953 -0.565145 0.194062 
0.901805 -0.611928 0.112561 
0.799068 -0.632003 0.022484 
0.675235 -0.658193 -0.070005 
0.558845 -0.677852 -0.153555 
0.451369 -0.705763 -0.220170 
0.335234 -0.730513 -0.272563 
0.218989 -0.738716 -0.311517 
0.112563 -0.748346 -0.320070 
0.006302 -0.772668 -0.292644 
-0.205706 -0.836371 -0.175442 
-0.313385 -0.863311 -0.092099 
-0.409451 -0.883232 -0.007495 
-0.498015 -0.886120 0.072407 
-0.597009 -0.908541 0.174996 
-0.677889 -0.893181 0.225497 
-0.745733 -0.851798 0.260070 
-0.800422 -0.814439 0.263135 
-0.840953 -0.742083 0.249341 
-0.878233 -0.667377 0.212635 
-0.893189 -0.578024 0.146226 
-0.886977 -0.481925 0.070172 
-0.866881 -0.385328 -0.014475 
-0.849569 -0.282155 -0.103627 
-0.825297 -0.173515 -0.179089 
-0.759340 0.034740 -0.292349 
-0.726920 0.138011 -0.317541 
-0.704946 0.244143 -0.310575 
-0.692013 0.345111 -0.280852 
-0.670273 0.467016 -0.239188 
-0.657588 0.587424 -0.155713 
-0.629642 0.699024 -0.076159 
-0.609368 0.819125 0.017621 
-0.575709 0.920108 0.106150 
-0.533512 1.009360 0.192787 
-0.477957 1.088454 0.267652 
-0.419179 1.139099 0.300249 
-0.338991 1.179723 0.309822 
-0.251617 1.185238 0.295318 
-0.165208 1.191224 0.264987 
0.012578 1.135100 0.150868 
0.100096 1.086068 0.075783 
0.191586 1.024682 0.001815 
0.277537 0.957745 -0.070414 
0.357300 0.874365 -0.149074 
0.439500 0.788926 -0.203269 
0.529503 0.699090 -0.236099 
0.610052 0.621303 -0.252239 
0.706486 0.524983 -0.238761 
0.785683 0.446231 -0.197161 
0.870402 0.363552 -0.144041 
0.949548 0.278369 -0.080672 
1.036323 0.186530 -0.004115 
1.113574 0.094812 0.078620 
1.164495 0.000287 0.153322 
1.155497 -0.067408 0.314740 
1.107040 -0.036872 0.399272 
1.049106 -0.022500 0.470751 
0.977319 -0.020967 0.525525 
0.909839 -0.009597 0.587142 
0.834520 -0.001171 0.640757 
0.751405 0.009145 0.686097 
0.671927 0.010981 0.733720 
0.586952 0.008487 0.769365 
0.499712 0.007436 0.811370 
0.422702 0.001837 0.860054 
0.332397 -0.003294 0.893298 
0.244758 -0.013339 0.929826 
0.153164 -0.019365 0.960312 
0.058000 -0.023187 0.979712 
-0.042127 0.063833 0.982817 
-0.037166 0.154593 0.968037 
-0.038039 0.243038 0.944960 
-0.033432 0.330218 0.914998 
-0.032877 0.414954 0.877021 
-0.029277 0.498911 0.840668 
-0.018546 0.578736 0.809721 
-0.016290 0.658933 0.765343 
-0.012449 0.743279 0.714667 
-0.009173 0.825769 0.660489 
-0.012550 0.904356 0.606728 
-0.014624 0.971902 0.539224 
-0.022920 1.034728 0.469101 
-0.033979 1.091916 0.393079 
-0.051321 1.138755 0.305959 
-0.141638 -0.031834 1.008984 
-0.241593 -0.025769 1.004380 
-0.345168 -0.024695 0.991157 
-0.445856 -0.029705 0.948031 
-0.542876 -0.018485 0.887092 
-0.626523 -0.014670 0.813999 
-0.706170 -0.015409 0.740550 
-0.768803 -0.013294 0.648264 
-0.805267 -0.017500 0.533040 
-0.838518 -0.016994 0.423521 
-0.857568 -0.015033 0.308609 
-0.874761 -0.013289 0.199419 
-0.863230 -0.021937 0.076365 
-0.846846 -0.023205 -0.041010 
-0.817930 -0.041622 -0.144969 
-0.035950 -0.127166 1.002653 
-0.027629 -0.225536 0.992216 
-0.025186 -0.328444 0.977084 
-0.021484 -0.424770 0.941377 
-0.017962 -0.517644 0.901427 
-0.012063 -0.601881 0.830132 
-0.007529 -0.678398 0.749168 
-0.001567 -0.747249 0.661721 
0.001085 -0.795510 0.552104 
-0.004296 -0.836318 0.442854 
-0.003816 -0.861031 0.325237 
-0.015313 -0.873376 0.203125 
-0.040454 -0.864774 0.084188 
-0.061221 -0.853370 -0.034389 
-0.074722 -0.831103 -0.141980 
0.738611 0.450209 0.299109 
0.303782 0.352769 0.747372 
0.323998 0.863674 0.308813 
0.919733 0.311188 0.253603 
0.981877 0.244787 0.228370 
1.023810 0.178166 0.262342 
1.069703 0.139349 0.204421 
0.488882 0.766926 0.123390 
0.477990 0.319842 0.661622 
0.269809 0.640972 0.600534 
0.681769 0.584500 0.054301 
0.686068 0.300712 0.540362 
0.715056 0.577557 -0.049520 
0.738624 0.194777 0.590160 
0.189099 0.494471 0.745809 
0.207500 0.809416 0.532036 
0.818637 0.461638 0.032143 
0.832125 0.217441 0.498930 
0.105191 0.378796 0.848112 
0.126195 0.916463 0.487133 
0.399169 0.731578 0.383291 
0.377146 0.498715 0.616747 
0.357865 0.891878 0.042626 
0.376962 0.155213 0.822414 
0.894287 0.377867 0.031731 
0.908458 0.180655 0.442144 
0.059136 0.302315 0.895776 
0.074607 0.977591 0.461690 
0.216067 0.999866 0.111336 
0.244167 0.095861 0.908483 
0.971946 0.267167 0.027014 
0.986201 0.084147 0.447074 
0.538473 0.572691 0.399439 
0.050494 0.240661 0.920719 
0.062574 1.018747 0.414373 
0.156071 1.049083 0.134394 
0.186413 0.065221 0.935426 
1.058729 0.086277 0.350934 
1.043346 0.186861 0.084333 
1.107613 0.043214 0.279793 
0.615089 0.441434 0.475649 
0.608339 0.602320 0.201865 
0.508070 0.695775 0.260819 
0.494506 0.456652 0.568285 
0.728195 0.514793 0.138788 
0.724787 0.353629 0.443158 
0.663475 0.499424 0.317325 
0.374468 0.626148 0.529435 
0.285812 0.175647 0.857239 
0.275948 0.955840 0.145815 
0.350951 0.879273 0.175295 
0.350499 0.262354 0.773940 
0.330882 0.695452 0.501730 
0.319622 0.573242 0.615728 
0.452625 0.745451 0.250807 
0.437439 0.419947 0.631171 
0.241219 0.435973 0.740200 
0.267437 0.838207 0.434541 
0.426978 0.827304 0.082072 
0.429699 0.240747 0.730565 
0.283759 0.504632 0.684538 
0.303710 0.770741 0.466025 
0.196425 0.374950 0.799817 
0.221420 0.896265 0.413834 
0.848775 0.418476 0.168742 
0.863218 0.282031 0.389530 
0.394963 0.337118 0.704124 
0.408754 0.825595 0.211192 
0.365340 0.804365 0.342919 
0.340115 0.427563 0.692024 
0.089747 0.529280 0.789558 
0.099769 0.803058 0.623582 
0.206547 0.732470 0.597442 
0.202972 0.578112 0.702100 
0.048398 0.444344 0.836508 
0.073370 0.883287 0.578672 
0.601286 0.320095 0.590505 
0.593472 0.662984 0.057327 
0.404711 0.841053 -0.098934 
0.445206 0.077715 0.816607 
0.164839 0.945116 0.402334 
0.150501 0.322506 0.858513 
0.176363 1.010767 0.233425 
0.185981 0.164732 0.913222 
0.425320 0.660318 0.437325 
0.395819 0.557084 0.557234 
0.226565 0.271412 0.832991 
0.239270 0.939185 0.290890 
0.974381 0.194783 0.345063 
0.941470 0.307614 0.120929 
0.142923 0.445711 0.793216 
0.167865 0.860447 0.514488 
0.332989 0.913261 -0.050189 
0.375753 0.058288 0.862735 
0.277757 0.961592 0.029237 
0.311576 0.079775 0.880151 
0.028554 0.375961 0.875407 
0.049222 0.932493 0.539835 
0.073948 1.057577 0.328064 
0.074155 0.167604 0.935659 
0.126244 0.248205 0.900189 
0.133333 0.997755 0.358099 
0.586633 0.506016 0.444915 
0.579689 0.591840 0.291041 
0.521057 0.625600 0.308692 
0.521223 0.511561 0.490921 
0.700754 0.430992 0.381646 
0.711469 0.520988 0.230371 
0.610185 0.535975 0.348550 
0.495480 0.760193 0.011254 
0.511245 0.237212 0.700083 
0.789747 0.477503 0.118112 
0.783685 0.315520 0.419160 
0.637760 0.561609 0.249211 
0.644026 0.469915 0.408433 
0.752242 0.387274 0.372221 
0.674319 0.401891 0.473324 
0.652960 0.563347 0.155706 
0.463772 0.681925 0.334715 
0.454399 0.504858 0.551214 
0.819968 0.375395 0.299703 
0.785564 0.471304 0.208635 
0.920208 0.242009 0.366607 
1.017030 0.216402 0.157281 
0.537079 0.706821 0.155385 
0.531416 0.380646 0.587373 
0.612476 0.385456 0.532116 
0.596688 0.633687 0.127101 
0.483626 0.627125 0.386994 
0.453843 0.580219 0.469977 
0.168456 0.651999 0.669385 
0.567615 0.650796 0.225229 
0.563216 0.455657 0.519631 
0.083579 0.612949 0.736147 
0.087012 0.699848 0.683893 
0.633934 0.637994 -0.027970 
0.644159 0.237718 0.627317 
1.145752 0.003844 0.225203 
0.483916 0.157438 0.758240 
0.458437 0.793741 -0.051178 
0.707644 0.096721 0.661564 
0.665746 0.576633 -0.179069 
0.759355 0.270921 0.498442 
0.754033 0.530859 0.048742 
0.750311 0.513281 -0.107853 
0.792236 0.106172 0.609434 
0.099344 0.067493 0.955950 
0.076631 1.092446 0.210552 
0.933978 0.069573 0.510280 
0.907643 0.348692 -0.045790 
0.832689 0.421835 -0.087544 
0.869024 0.096104 0.548358 
0.891352 0.382626 0.120230 
0.563631 0.278163 0.647267 
0.551347 0.701430 0.018475 
-0.004394 1.130293 0.233186 
0.020578 0.033361 0.977930 
0.021582 0.097907 0.961468 
0.014366 1.107067 0.295474 
0.583135 0.657714 -0.171825 
0.620406 0.088051 0.714551 
0.495963 0.748768 -0.152826 
0.537332 0.082931 0.766657 
0.653125 0.611328 -0.110699 
0.662692 0.152835 0.650839 
0.555089 0.706804 -0.079166 
0.579042 0.178996 0.704412 
0.753710 0.524986 -0.019203 
-0.519360 0.395969 0.800064 
-0.405107 0.933628 0.590882 
-0.790188 0.353762 0.103256 
-0.395280 0.259414 0.903792 
-0.310808 0.228566 0.950115 
-0.272448 0.164287 0.973309 
-0.209014 0.096673 0.984988 
-0.353989 0.797483 0.716502 
-0.791831 0.282846 0.343889 
-0.667024 0.685870 0.282158 
-0.330299 0.572201 0.808424 
-0.696102 0.239697 0.647674 
-0.221756 0.564240 0.834700 
-0.712380 0.148904 0.669088 
-0.551146 0.914836 0.404364 
-0.740220 0.524926 0.052789 
-0.255687 0.450026 0.876855 
-0.576405 0.171544 0.822021 
-0.444577 1.042260 0.420655 
-0.743824 0.381470 -0.114683 
-0.743180 0.489772 0.297809 
-0.547645 0.761933 0.537920 
-0.189738 0.935995 0.631579 
-0.842388 0.126205 0.200303 
-0.207636 0.372846 0.909175 
-0.493702 0.119849 0.894847 
-0.378055 1.109028 0.396883 
-0.739111 0.308528 -0.198289 
-0.142604 1.057965 0.521140 
-0.842787 0.080929 0.023644 
-0.418808 0.055859 0.953243 
-0.132435 0.299754 0.942551 
-0.621533 0.537557 0.576383 
-0.320644 1.140024 0.392762 
-0.741818 0.238913 -0.224630 
-0.117949 1.088767 0.463902 
-0.835182 0.055836 -0.040424 
-0.291007 0.074324 0.985701 
-0.148752 0.176365 0.979838 
-0.203224 0.029905 0.997615 
-0.476071 0.574223 0.730134 
-0.680355 0.374546 0.596013 
-0.503334 0.690636 0.644040 
-0.742305 0.414443 0.428012 
-0.619959 0.286093 0.722202 
-0.402247 0.485123 0.831045 
-0.558141 0.440285 0.718667 
-0.664586 0.641839 0.402833 
-0.213817 1.007665 0.573580 
-0.832110 0.154503 0.066964 
-0.310615 0.936688 0.631589 
[...]
POINT_DATA 2044
SCALARS u float 1
LOOKUP_TABLE default
6.921934
6.049074
7.174612
7.098606
1.105577
7.912166
8.582330
8.856358
8.304585
7.267568
5.554847
3.793157
2.656960
3.090057
4.776188
6.215241
7.421432
8.508332
8.884553
8.330862
5.716530
4.187683
3.085193
3.107084
4.772251
5.801334
6.456839
6.576548
6.155713
5.381227
3.986744
2.792850
2.896391
4.144775
5.675619
8.375107
9.026372
8.851931
8.050089
7.022924
5.179578
3.841850
3.291537
4.191921
5.787965
7.434578
8.161883
8.458362
7.994566
7.396370
4.898564
3.535148
2.632344
2.880267
4.130874
5.230882
5.908249
6.234616
5.956911
5.058126
3.964424
2.953826
2.873785
4.046416
5.462532
6.109542
5.340156
4.482795
3.384789
2.626345
1.874382
1.248368
0.999500
1.062678
1.315444
1.174344
1.296079
1.201410
1.110721
1.072283
1.223438
1.240626
1.359412
1.381719
1.440206
1.416744
1.521606
1.699906
1.901934
2.319039
3.028720
3.614483
4.317034
5.047614
5.669308
1.225482
1.278879
1.522166
1.624128
1.627281
1.638677
1.764854
1.897204
2.370025
2.931409
3.634086
4.181849
5.157540
5.990038
6.675975
1.030771
0.938240
1.098515
1.107896
1.172119
1.052618
1.112808
1.332642
1.875853
2.482378
3.247346
4.114913
5.042966
5.926008
6.599911
3.565217
2.704673
1.467263
1.509730
1.202862
1.951724
2.948307
4.421995
3.011321
1.934223
5.275128
2.125443
5.417090
0.899202
1.885481
0.222729
4.073574
0.495373
1.554888
1.592208
3.000634
3.111404
2.847137
1.853181
2.938112
0.647273
1.442690
2.774456
1.796168
1.338224
2.297206
2.445657
4.095948
1.389014
3.301974
2.534454
1.229872
3.339892
2.528722
4.271218
3.430496
5.079829
4.354760
3.365522
4.625093
2.511742
4.155837
2.875426
1.794167
1.584806
2.315003
2.487486
2.306494
2.500604
3.964042
3.193139
2.421143
0.735188
3.775597
2.702643
2.417172
1.555712
2.114485
0.366997
3.153163
0.914177
2.947506
3.044876
2.244586
2.816864
1.128580
1.149700
0.719863
1.513132
1.369083
2.004164
2.662748
5.574754
4.358845
1.572603
1.301219
1.616157
1.813228
1.328452
3.396524
3.233875
2.115882
0.734868
1.267184
1.968752
1.775455
0.666637
3.112710
1.399726
2.219083
1.483175
1.395117
2.670281
3.494161
1.340385
1.409514
2.158419
3.755495
4.653258
4.625494
3.738055
3.375826
4.279512
4.312182
5.062758
2.379728
4.128305
1.851192
4.801126
3.668351
2.798408
2.827652
5.199007
4.070949
3.506978
2.449214
3.715899
0.553516
1.800709
4.898771
3.280447
3.081510
5.479268
4.126067
3.857751
1.146240
4.840714
3.421192
1.175106
0.995227
5.751447
1.757869
5.165847
1.950865
4.866719
0.814480
6.368542
1.505817
4.686678
5.206620
0.541958
1.196506
3.765649
1.931939
3.194918
4.354299
1.028909
2.719367
2.456916
5.637927
5.009573
1.139640
1.276922
4.600689
6.032038
1.248904
5.559839
1.417007
5.921892
1.382846
5.739726
1.659988
4.874152
2.234628
5.799585
5.436132
1.984609
1.764846
1.620718
1.346105
4.400397
3.943773
0.322669
2.445159
2.453264
2.234788
2.454706
4.788706
3.862439
2.135046
2.072903
7.033195
6.527971
2.412033
3.036880
4.737060
5.068820
1.871206
1.825409
7.769961
7.723694
5.770108
6.224863
1.760026
1.510397
1.336180
7.928767
8.333155
5.905379
6.581971
1.542936
1.403196
1.249534
2.337173
2.057794
2.883030
2.378503
2.224087
2.495045
1.860210
0.656938
5.715419
6.146129
5.503692
5.489556
2.140855
1.351062
3.857920
3.444006
5.366046
4.779396
4.658607
4.642993
3.132227
4.047483
5.785392
6.507790
2.115216
2.035845
4.744045
5.218509
4.306617
4.637158
3.993593
4.780377
2.069599
2.782175
6.561231
6.012022
2.648140
2.883641
3.460683
3.866093
7.039122
6.637609
6.892037
7.161298
0.796210
1.918338
6.637884
6.611429
1.757631
5.421042
6.001947
3.674350
4.496011
4.686065
5.309049
7.203966
7.550563
7.657449
8.236167
7.676637
7.386990
1.985375
1.667426
1.577152
2.117435
2.266497
2.002355
1.694088
3.596259
3.743382
2.242925
2.279031
1.867200
1.967992
2.363731
2.427669
2.284223
1.877068
2.537276
1.790036
2.092240
2.192574
1.617365
3.364817
2.898153
2.927879
2.518924
1.099046
1.168935
1.390646
2.070636
2.587762
2.333444
2.627801
2.710140
2.659601
3.900662
3.590352
2.131097
2.109858
2.288174
2.311446
2.138518
1.985810
6.528803
7.335431
1.743853
1.632068
1.747435
1.807326
3.123029
3.204482
7.619039
6.576295
8.143388
7.356492
2.020687
2.352026
2.454312
2.909312
3.182580
1.884948
2.430288
2.513904
3.173449
3.049746
1.258353
1.213583
2.882984
1.941196
2.526539
2.432969
2.054159
1.650789
1.568381
2.035170
6.057529
2.279669
2.556448
1.628215
1.486158
4.503718
4.944884
2.114772
1.902782
2.795825
3.283268
4.491622
4.437961
1.537649
1.311112
1.974263
1.646329
1.978928
2.351369
3.358147
3.130153
1.212442
1.473573
4.595156
2.248447
2.426085
4.397100
4.172135
1.431517
1.595053
3.286760
3.379273
3.671122
3.724075
2.591965
2.692000
3.313653
5.242163
1.607163
1.590885
0.566836
0.677615
5.333800
5.382871
3.087126
3.581283
3.490291
4.174803
0.223289
0.653575
4.929386
4.601898
2.983470
2.493830
2.305633
2.710725
2.284884
1.730463
3.923454
3.093042
5.905429
5.330036
5.908938
5.705707
4.017391
4.707801
2.334381
1.851523
2.255562
2.087483
1.696336
2.012166
2.608667
2.497111
4.780963
4.922753
1.111751
0.773931
1.737684
2.200677
4.474603
3.771599
3.038614
2.971178
3.120252
2.956277
3.467428
3.056702
3.217163
3.286626
1.755000
1.790793
3.934925
3.995638
4.198956
4.245876
3.172068
2.998591
3.732004
0.373283
0.826005
2.460567
2.482166
3.436587
3.438561
2.680941
3.100741
3.001922
4.489662
4.331997
2.628211
2.802692
2.563237
2.598016
2.847370
2.912489
2.256530
4.626375
4.742854
6.380482
3.619326
3.514381
6.545308
6.260946
1.683915
1.286164
0.589686
0.874137
1.274483
0.874034
2.332832
2.049432
1.309204
1.390813
4.952836
4.936081
1.288436
1.499613
1.384042
1.202365
1.599835
1.280667
5.839711
5.964666
4.786396
4.728901
2.212152
1.237917
0.946005
1.297936
1.649079
0.948146
0.964207
0.901859
0.620449
0.568471
1.279461
1.047820
1.100031
1.142826
3.574438
5.323119
1.391301
5.794766
6.561833
6.937068
7.192881
7.208763
3.207580
1.473607
2.415009
1.939404
2.983872
2.922159
2.755861
4.031432
1.593217
5.062030
4.286750
5.090615
1.161484
1.470768
3.469646
6.122431
1.340199
4.712148
6.522689
5.500675
1.034473
8.157809
1.202361
7.800620
4.792914
1.627316
6.124638
1.063375
8.376145
1.171174
7.889150
6.146416
1.216858
2.374115
2.030786
1.728348
3.718273
3.167018
2.836814
2.023196
7.161859
1.299717
5.581505
1.451254
2.863207
1.917345
3.164131
1.583285
4.632718
1.322157
4.453677
1.384391
1.564014
3.656131
1.232569
5.315059
5.536877
4.807536
1.417587
4.380357
1.516862
4.270685
1.323864
3.234031
2.074005
3.161624
4.004810
1.140371
2.263690
0.364411
5.485585
1.334904
5.885315
1.201135
7.630754
1.210320
1.753736
2.510331
1.339553
6.511689
5.788749
7.023639
1.339083
4.572402
6.871592
1.267372
7.665601
1.253443
1.127305
4.414207
7.005654
0.972023
1.134520
6.735217
1.309983
2.024004
1.703372
1.713059
2.999983
3.192104
1.957695
3.120621
1.540469
4.229970
4.446690
2.533778
1.962740
3.837295
1.920692
2.926417
2.264792
1.563697
4.686497
3.936590
1.761039
1.841069
0.707461
2.248599
6.361895
1.712242
1.867976
2.441147
1.840935
1.152440
1.705167
2.384810
2.484393
0.415982
1.332864
4.119233
2.461244
1.880260
3.665387
3.574689
3.113655
4.180353
7.973316
0.991877
3.855775
7.297978
6.317305
3.179074
1.930046
1.681613
1.023573
7.493700
0.919430
7.076421
5.109652
1.762827
1.274038
3.584800
1.286368
2.217480
1.374114
2.004725
1.629414
2.012440
8.152886
6.064263
1.046651
2.086962
2.814218
3.178243
1.654297
3.043133
2.256871
2.908325
3.110222
4.558140
4.230948
1.088847
1.640322
1.473970
3.636153
3.635691
1.756672
2.739690
5.455612
4.283834
3.091457
1.278498
2.944594
5.751709
6.050815
3.679307
5.196399
3.349109
1.633713
2.632312
3.123936
4.061787
3.810061
5.380087
2.949264
4.867716
1.074751
2.464369
2.389793
1.620243
2.828717
1.988918
1.665036
2.887022
3.056026
4.852302
5.113415
6.932766
1.736610
5.825723
1.044274
6.503247
6.651253
6.311929
3.076223
4.812354
2.113951
1.176965
2.402927
3.715068
2.979302
4.412780
1.253700
3.687171
4.997188
2.845454
3.178981
4.102798
1.285100
4.109808
3.043479
7.099147
4.148291
4.693064
3.966883
2.492796
4.300163
2.923492
4.372419
1.735695
1.820760
1.930714
1.113545
2.828193
3.085696
2.761689
4.154863
1.857503
2.380308
4.302548
1.175496
1.868695
4.284767
2.805883
5.253158
4.269278
3.683374
0.933393
6.865006
2.432022
1.707716
3.512059
1.012411
7.213528
2.230843
1.222375
3.058291
4.198002
3.252110
6.762638
4.422336
4.049926
3.504497
2.475098
3.572336
6.491497
7.709808
2.395432
6.403070
1.313286
1.973714
1.528630
1.779258
5.077623
3.132956
5.118822
1.413830
5.913304
1.788868
3.763822
3.796903
3.429902
7.517035
3.758581
3.236505
3.629275
3.067838
1.825891
5.175758
3.718945
5.490431
6.368207
4.318404
5.905523
2.605399
2.339744
3.110596
3.945612
1.451995
2.543754
3.147054
3.296641
2.201574
3.411899
1.916826
2.186947
1.567621
1.016782
5.205248
7.155878
1.158275
5.245228
2.944528
2.657628
2.541078
3.490763
2.357203
5.531938
2.905409
2.490829
3.188684
4.579471
2.307785
1.450809
5.899270
1.491720
2.174735
2.139389
3.006963
2.965962
2.922877
6.064296
5.318113
4.800688
3.722439
5.916500
3.434463
1.222903
3.313481
7.753919
5.394870
3.959644
5.811069
1.003830
3.668756
1.237806
5.116314
3.535308
2.486861
4.984617
5.184681
4.428010
7.514643
1.479722
1.168812
1.146840
1.716021
4.640508
2.731112
2.480149
6.249028
7.925448
5.134640
6.287245
3.490763
3.393605
3.096941
7.506573
5.770139
1.868290
2.740700
3.640019
4.370767
7.270759
3.812745
4.975393
3.428660
3.162211
2.071184
1.115174
6.282520
4.377937
4.481689
6.784643
6.512005
2.288517
2.933492
7.149379
3.033690
3.463959
5.539700
3.509375
5.655573
2.866535
2.869441
7.581950
1.894465
2.826217
8.090462
4.922347
4.386896
4.311300
1.367081
2.545918
2.301625
6.031849
2.101412
3.769722
1.269082
4.481372
2.785241
6.518321
3.302065
1.083945
3.644790
3.253004
1.563658
2.330034
3.431467
1.275308
0.981098
3.804632
2.631483
3.333614
5.204928
5.315392
5.876629
3.792486
4.156915
2.809041
5.155008
3.606321
6.373883
2.035134
3.841572
3.970139
2.200568
3.520498
1.149129
0.973532
3.894903
1.778768
3.259583
3.655220
7.904040
2.124777
2.867891
4.196653
3.436319
4.831049
2.513394
1.399837
1.527590
1.311440
4.468066
5.263967
4.442728
3.739387
1.435297
3.146262
1.407715
3.715130
2.735703
1.251595
2.463509
1.929804
2.680797
1.443374
3.925328
5.521299
2.652071
3.625800
4.082574
2.551362
3.680683
4.585202
4.398755
1.759179
3.079175
4.746941
5.563092
4.691069
2.100205
2.919430
3.208725
4.595624
1.815446
1.590905
3.618051
6.822159
4.557975
2.813899
3.663146
8.230329
2.499221
2.099584
1.931501
4.471792
2.150973
4.493833
1.151548
2.694817
4.667282
5.443428
2.401667
2.621593
2.967970
1.728068
4.102051
3.561846
5.325116
3.244318
2.244971
1.965079
7.309092
2.736568
1.126714
1.416647
3.227521
3.561417
4.518679
1.707648
6.421035
2.872697
5.881916
5.820557
3.092629
2.924299
3.260186
4.226477
5.398978
3.636835
5.089654
4.724308
3.481366
2.997066
4.610964
3.653966
1.910374
4.806717
3.458830
1.548288
2.412537
2.063045
1.074640
1.625428
7.314565
0.920083
1.357406
8.050674
1.769686
3.059043
2.435967
0.853857
0.526543
0.611704
3.998512
1.924460
2.148086
1.107779
2.347857
1.227432
0.944927
0.528105
1.683135
5.624920
4.202784
4.716895
2.174802
1.347257
1.209145
1.197700
1.854922
1.174710
0.804358
1.595828
3.932309
4.517701
6.240600
0.988205
0.276148
0.669358
1.076221
1.107059
0.962760
0.947649
1.227306
0.653527
1.571738
1.199008
0.804503
1.375344
0.916728
1.077124
1.386992
1.443117
0.875668
1.167449
1.198805
1.193001
1.508963
1.134181
0.796363
0.289031
0.316509
1.028757
1.028147
0.425400
0.482397
2.582980
1.354697
1.764746
0.714735
1.189185
1.696069
1.765776
0.332705
2.545505
0.680253
2.487812
1.183267
2.769676
0.756378
1.039584
1.475817
1.093645
1.603800
2.623094
1.397734
1.148294
0.952134
1.400677
1.784515
5.002313
6.334008
5.343009
4.108373
4.080149
4.604361
3.335770
6.063846
3.487613
5.971399
4.878676
2.850983
1.983876
2.790906
1.934617
0.746732
4.056190
2.543113
1.856749
1.394040
0.727184
2.546073
1.450073
0.521146
1.070836
1.191566
1.613798
1.823539
1.331419
1.814006
1.646413
1.490176
1.445526
1.771139
1.433883
1.362573
2.557159
2.089781
1.319189
1.495768
2.394924
1.060112
1.421894
1.999468
1.118013
1.394834
2.423914
1.229224
1.287964
0.407748
1.199739
5.207382
5.740106
5.247346
5.080349
1.284059
1.420719
1.298399
1.264525
1.181639
1.699063
1.297717
1.684042
1.547379
2.096199
3.835254
1.474306
1.522873
0.693657
2.536768
2.206628
1.326566
3.200980
1.147483
1.337551
2.470458
3.990258
3.555349
2.526109
3.040764
2.825241
2.412737
0.614268
2.675358
2.333880
3.589007
1.390543
0.769884
0.834896
0.471720
1.400427
1.413248
2.190151
2.433442
2.188569
1.609215
1.321393
1.463332
1.116954
1.896413
1.201089
4.544495
3.202281
3.329978
4.036360
3.719074
4.232010
2.325715
1.114447
2.271345
3.468137
1.664439
1.812240
2.256753
2.388496
4.850329
1.136258
1.158002
0.584982
0.178555
1.291308
1.299843
1.255452
2.532108
1.169096
5.086284
2.562741
4.215474
1.461606
1.261376
2.487821
2.427417
2.780568
1.105970
1.978468
1.672963
0.407069
0.649372
1.881602
1.417185
4.150666
1.168112
2.029565
0.883022
0.903953
0.680050
2.391974
0.784640
0.574806
0.208479
0.705987
0.383166
0.725810
1.167153
3.130228
3.635985
3.308794
0.288163
4.845435
1.037185
0.919081
1.108477
1.070223
0.963030
0.860419
2.603724
3.843632
2.243550
1.641634
1.937004
1.442668
0.788575
1.035550
1.123105
0.889742
1.391522
1.008688
2.959570
3.355844
1.561896
1.530524
0.854464
1.143357
1.602737
2.778050
2.917276
1.668452
4.764898
1.761870
0.909689
4.914727
1.040333
6.145576
6.900735
5.841216
5.196249
5.242113
5.647669
3.964369
4.587585
1.027808
0.945328
0.944457
1.108469
1.063253
1.085942
1.052756
0.766885
0.971625
1.883363
5.518217
2.287076
1.845602
2.069385
3.152291
3.110218
3.028117
3.214650
3.404448
2.127187
1.775346
3.172744
2.231803
3.284619
3.194439
4.268601
4.669623
2.052195
2.212085
3.208845
4.587090
1.795945
3.207954
2.026305
1.461005
3.025149
2.988114
3.302984
3.237980
3.848976
3.207478
3.956272
2.705911
3.175925
3.064712
2.554156
4.278748
4.022049
1.365829
3.874667
1.097996
0.565978
0.717402
0.955334
0.981577
1.393280
0.979967
1.182552
0.956430
0.519355
1.885391
1.473570
0.712517
0.882767
1.409192
0.895828
0.903757
3.946777
2.120315
1.460848
2.154190
0.810324
1.465675
1.132395
1.246698
0.653999
0.361792
2.010619
2.321808
2.552492
1.818890
1.303368
0.873739
1.114447
0.846997
0.637821
1.828564
2.039770
1.307808
1.126347
1.355748
1.434091
0.982185
3.951912
3.450475
2.833555
3.200746
2.606114
2.124017
1.647404
1.156040
0.873314
1.416083
1.115707
1.090186
0.984067
4.324820
3.323304
4.132337
5.384685
2.018513
1.315119
1.692817
1.745584
2.631299
1.911213
2.371586
1.731914
1.947521
4.318787
3.606959
3.598197
2.100194
2.280148
1.696098
1.535767
1.559011
1.705010
1.800469
2.185567
1.638490
1.357307
1.262258
1.256563
2.981510
3.712957
3.834628
2.481881
3.095693
3.562547
2.580160
2.047217
2.563708
1.303383
6.284161
5.674418
0.787927
3.122739
1.537573
1.373066
1.781651
2.063600
2.143696
0.962004
5.374938
4.664954
4.729852
4.377364
2.352650
1.271214
1.347677
1.369940
1.048298
3.803655
3.087953
2.666442
2.634280
2.094186
1.926278
2.504248
2.988831
3.132562
4.746296
0.989719
3.438733
3.161533
2.395048
1.880097
1.396597
1.066963
0.912163
0.828500
2.514315
2.097803
4.363878
1.826861
4.342603
2.936265
3.473232
0.932366
1.157611
1.188975
2.568881
1.958772
2.211347
3.514744
2.427678
2.006178
5.210301
1.203455
1.467352
0.986466
0.944076
4.499667
1.904880
1.494295
2.065852
2.315228
1.865295
1.596219
1.748984
1.254023
3.704388
4.006041
3.660311
3.361971
1.590650
2.665512
2.402549
2.911663
4.748744
3.231935
6.086058
0.906774
3.189065
4.646194
4.033124
4.079905
3.092341
2.390934
3.507340
2.255749
2.432254
5.017041
4.443439
1.028618
0.933484
0.699915
0.992435
0.839705
0.771848
3.555948
1.536219
1.469465
1.433378
3.488178
2.246209
3.728598
2.733416
2.326298
2.299479
2.477272
2.421108
1.834057
2.177913
2.455256
1.826750
1.661626
1.325273
1.185091
0.971651
1.607678
2.538809
4.152472
1.043143
0.969034
0.765434
2.388436
2.490611
1.334838
2.193018
2.825156
1.679442
2.746209
2.096529
3.057446
3.648942
2.593154
1.952458
2.928531
4.861409
5.870890
4.662102
4.110869
2.747827
2.710279
2.786652
4.264975
3.607232
2.646482
3.579885
1.653414
1.472241
2.644515
2.327348
2.394236
1.748571
2.925465
4.300358
4.795092
3.713569
1.402708
1.078132
1.564143
1.761082
1.130751
0.917237
1.150285
1.156222
2.551222
3.098204
2.542104
4.178025
3.177792
2.506373
2.870146
2.729478
3.386706
1.565531
3.661506
1.681021
1.326320
6.140569
1.699881
1.492576
2.673329
2.177417
4.933092
2.703736
2.055146
1.066179
1.924122
1.550440
2.501857
1.844858
3.913745
3.375435
2.315362
2.257780
1.759875
2.359043
3.011009
2.532156
3.158650
2.547745
1.841818
0.770998
0.881029
0.551310
1.969783
1.255383
1.322561
3.826657
3.192355
1.874694
4.343573
3.886443
6.530858
5.003304
2.871310
2.163958
1.712078
3.151775
2.879575
3.898581
2.111971
2.262126
1.953964
2.106854
4.204876
1.632294
1.005720
4.822860
4.926788
4.224604
3.596276
3.047970
2.022396
2.360896
2.181037
2.092053
2.125970
2.080601
2.268967
1.022921
0.890733
1.118490
2.202617
0.911406
3.090215
3.011411
2.428440
4.612277
3.063633
1.175431
1.143923
1.137715
0.774930
1.790813
2.211946
2.076137
1.977740
1.034817
4.446871
4.941069
4.004654
4.048964
0.860550
1.232540
0.927285
2.251452
2.504015
1.445873
1.017388
0.858244
0.945377
0.900130
2.419134
1.796342
2.416687
2.228887
1.561427
3.134619
2.258371
1.947929
1.420434
3.169964
2.516640
1.796845
2.599070
5.410218
4.845931
2.427858
3.283693
2.490587
2.101081
1.298772
2.717030
4.493525
3.497671
2.851065
2.910369
1.602332
1.720002
2.013498
1.451745
4.737475
5.031764
1.064463
1.065868
1.106424
1.041914
1.440491
1.531780
3.760024
1.246554
0.980666
2.025600
1.711107
2.323019
2.644734
2.502355
1.813059
1.759927
1.380253
3.413372
3.486637
4.140779
3.190195
2.861499
1.414508
0.511189
0.936132
0.421211
0.617086
0.381817
0.358214
0.630735
0.361968
0.982349
0.934511
0.546010
0.833408
0.432391
1.878088
1.501896
1.791326
2.086160
1.944699
1.933667
0.172504
0.989887
0.186314
0.488296
0.861400
0.519039
0.490069
0.558525
0.889506
0.903902
1.229626
1.663625
1.341355
1.934140
0.772659
0.834902
0.877439
0.443986
0.830982
0.440331
0.182517
0.224401
0.033145
1.225911
0.826654
1.773195
1.142493
0.661388
0.623480
0.807791
0.836163
2.369841
0.796948
0.206425
0.189937
0.336599
2.204497
1.152102
1.640041
0.197153
0.430523
2.421090
0.596994
0.464500
0.809484
0.905540
0.546260
0.507308
2.451759
1.201732
2.496236
0.896720
1.768786
1.031834
0.358236
0.562839
2.540318
1.873318
1.666581
1.399994
1.556800
2.039411
1.880446
2.379549
1.987975
3.024075
2.667481
3.338844
2.432216
2.673441
3.297288
2.864308
2.291032
2.381628
