# vtk DataFile Version 2.0
Unstructured Grid Example
ASCII
DATASET UNSTRUCTURED_GRID
POINTS 2044 float
0.863567 0.068473 -0.149897 
0.052750 0.886841 -0.139169 
-1.138258 0.047756 0.166668 
0.064940 -1.129793 0.164543 
0.027378 0.020368 1.001810 
0.848414 -0.030385 -0.183544 
0.824497 -0.136991 -0.206307 
0.796617 -0.241839 -0.216515 
0.771568 -0.339902 -0.202125 
0.747881 -0.439397 -0.177386 
0.721731 -0.549064 -0.131879 
0.685485 -0.649660 -0.076493 
0.644613 -0.758145 -0.015279 
0.606639 -0.851037 0.047573 
0.553345 -0.935864 0.104351 
0.485007 -1.001633 0.149621 
0.414929 -1.055285 0.185226 
0.338735 -1.105239 0.211698 
0.251174 -1.138744 0.217510 
0.160344 -1.146401 0.198872 
-0.024835 -1.103110 0.119225 
-0.114701 -1.060617 0.062588 
-0.209303 -1.007030 0.005093 
-0.304307 -0.949540 -0.049206 
-0.386035 -0.863831 -0.118922 
-0.472446 -0.789533 -0.153241 
-0.558730 -0.719469 -0.176736 
-0.643693 -0.634167 -0.178819 
-0.726839 -0.561211 -0.169445 
-0.799691 -0.479590 -0.144500 
-0.874264 -0.398936 -0.099371 
-0.948957 -0.315242 -0.047687 
-1.018142 -0.225696 0.009836 
-1.069956 -0.135924 0.070422 
-1.110635 -0.046711 0.121703 
-1.155458 0.141019 0.198672 
-1.153305 0.233880 0.215791 
-1.128188 0.321641 0.211057 
-1.081449 0.408217 0.190859 
-1.025751 0.474374 0.162545 
-0.949634 0.533924 0.105818 
-0.870439 0.590472 0.051756 
-0.773527 0.630983 -0.011975 
-0.674274 0.673047 -0.072137 
-0.570560 0.710580 -0.131012 
-0.466938 0.741568 -0.181888 
-0.357882 0.777623 -0.204040 
-0.257185 0.805544 -0.210546 
-0.156676 0.841845 -0.200689 
-0.052356 0.861962 -0.180077 
0.156079 0.900102 -0.102526 
0.259646 0.909238 -0.051500 
0.357357 0.910905 -0.001233 
0.454138 0.900866 0.047851 
0.548934 0.887056 0.101307 
0.634448 0.860381 0.138136 
0.705673 0.823244 0.160446 
0.773062 0.765416 0.171414 
0.818218 0.708746 0.162255 
0.862585 0.629874 0.133984 
0.889750 0.544685 0.097886 
0.906436 0.453573 0.054823 
0.902994 0.360793 0.002797 
0.890546 0.263237 -0.053428 
0.880126 0.164432 -0.104193 
0.886242 0.045808 -0.049262 
0.894986 0.025057 0.056334 
0.894307 0.015290 0.167645 
0.887563 0.014249 0.285612 
0.862950 0.006522 0.392740 
0.829396 0.000796 0.497680 
0.787693 -0.006215 0.599257 
0.731014 -0.007462 0.689021 
0.666633 -0.005767 0.775488 
0.593530 -0.005053 0.845129 
0.504488 -0.001248 0.896781 
0.416857 0.002238 0.944662 
0.321223 0.009065 0.975366 
0.223582 0.013160 0.994698 
0.125212 0.015757 1.005699 
0.028628 0.121248 1.003589 
0.025257 0.222611 0.989449 
0.025850 0.322392 0.965082 
0.022719 0.418337 0.929915 
0.022342 0.509753 0.885251 
0.019896 0.594074 0.825219 
0.012603 0.672216 0.748063 
0.011070 0.739844 0.667531 
0.008460 0.793215 0.579842 
0.006234 0.835343 0.484270 
0.008529 0.866675 0.379430 
0.009938 0.891245 0.276303 
0.015576 0.904078 0.168766 
0.023091 0.905264 0.060543 
0.034876 0.897618 -0.043294 
-0.068374 0.021633 0.985807 
-0.163488 0.017512 0.964751 
-0.252987 0.016782 0.933687 
-0.339753 0.020187 0.907467 
-0.422822 0.012562 0.878408 
-0.507353 0.009969 0.843342 
-0.585616 0.010472 0.795070 
-0.665180 0.009034 0.747094 
-0.751090 0.011893 0.703270 
-0.826680 0.011549 0.645307 
-0.898471 0.010216 0.582022 
-0.957259 0.009031 0.507224 
-1.020623 0.014908 0.435658 
-1.071806 0.015769 0.355537 
-1.115642 0.028285 0.263143 
0.024431 -0.078208 0.990109 
0.018776 -0.174401 0.973017 
0.017116 -0.264353 0.943251 
0.014600 -0.354082 0.911989 
0.012206 -0.439968 0.868665 
0.008197 -0.524099 0.832379 
0.005116 -0.604489 0.789213 
0.001065 -0.679828 0.737949 
-0.000737 -0.757720 0.690315 
0.002919 -0.828175 0.632169 
0.002593 -0.896118 0.570723 
0.010406 -0.958200 0.504706 
0.027491 -1.019574 0.430342 
0.041604 -1.067373 0.351038 
0.050779 -1.106690 0.261112 
0.789005 0.443468 0.566667 
0.362142 0.388336 0.942350 
0.348403 0.863315 0.418207 
0.873793 0.330415 0.357624 
0.900440 0.283575 0.245879 
0.907782 0.225532 0.181583 
0.904811 0.234748 0.084281 
0.539873 0.809408 0.454600 
0.547275 0.321097 0.880969 
0.282813 0.705389 0.732869 
0.751207 0.658422 0.444294 
0.748286 0.276840 0.688417 
0.780677 0.664271 0.349746 
0.775270 0.176048 0.645156 
0.223293 0.560750 0.869028 
0.210789 0.825803 0.535221 
0.849714 0.533574 0.333294 
0.826787 0.201730 0.532940 
0.157392 0.444249 0.932368 
0.143119 0.885918 0.370626 
0.406064 0.770103 0.609142 
0.421030 0.530703 0.848139 
0.468178 0.893176 0.230061 
0.455200 0.153549 0.940382 
0.886744 0.464124 0.238798 
0.878033 0.175985 0.403450 
0.113537 0.372915 0.960597 
0.103023 0.904998 0.264608 
0.327964 0.920481 0.113153 
0.308868 0.123669 0.982583 
0.909828 0.395758 0.128994 
0.894795 0.101054 0.285020 
0.582614 0.590923 0.708660 
0.108737 0.306179 0.980498 
0.100528 0.913881 0.188130 
0.271661 0.917316 0.052176 
0.251041 0.099184 0.994554 
0.903498 0.126042 0.152402 
0.905340 0.320414 0.063557 
0.902710 0.133371 0.042427 
0.676221 0.418069 0.729399 
0.680808 0.643317 0.580873 
0.535819 0.733722 0.590139 
0.545037 0.457056 0.820360 
0.786438 0.569997 0.482863 
0.781335 0.341395 0.626098 
0.732447 0.503429 0.627178 
0.391821 0.661464 0.745534 
0.357308 0.192012 0.973019 
0.364011 0.906013 0.212285 
0.418150 0.878959 0.338872 
0.418457 0.279709 0.950539 
0.337279 0.744431 0.670856 
0.344931 0.622259 0.798609 
0.478847 0.791469 0.548950 
0.489167 0.434008 0.869131 
0.294763 0.488745 0.909181 
0.276945 0.842579 0.489718 
0.510963 0.855226 0.356573 
0.509113 0.248742 0.920966 
0.319393 0.554950 0.858586 
0.305835 0.800005 0.581186 
0.253362 0.428759 0.941072 
0.236376 0.875528 0.402334 
0.843148 0.444574 0.408126 
0.859553 0.264935 0.457139 
0.454295 0.355047 0.920584 
0.444923 0.838035 0.440622 
0.376954 0.822090 0.513067 
0.394096 0.455546 0.898434 
0.113813 0.601843 0.829408 
0.107003 0.820234 0.537758 
0.211238 0.775324 0.631579 
0.213667 0.644715 0.795962 
0.097417 0.518927 0.891026 
0.080447 0.859236 0.427642 
0.673586 0.290678 0.778338 
0.678895 0.729082 0.469255 
0.563499 0.878419 0.191341 
0.535979 0.071295 0.895032 
0.192832 0.899709 0.318459 
0.202577 0.372708 0.958561 
0.249686 0.920635 0.158024 
0.243150 0.204706 0.986924 
0.440753 0.693910 0.694137 
0.438611 0.588056 0.798555 
0.290945 0.310765 0.975929 
0.282311 0.903763 0.297528 
0.897195 0.208374 0.288250 
0.899237 0.377247 0.247363 
0.192262 0.511082 0.901321 
0.175313 0.855633 0.464342 
0.486823 0.896990 0.130390 
0.457762 0.056672 0.931326 
0.409289 0.909537 0.122644 
0.386307 0.088299 0.964882 
0.082754 0.453693 0.924170 
0.068708 0.885376 0.342329 
0.135485 0.917112 0.109597 
0.135344 0.218641 0.999964 
0.179475 0.297084 0.980006 
0.174658 0.913703 0.222404 
0.628851 0.494377 0.728433 
0.633570 0.628588 0.640467 
0.568060 0.681051 0.654473 
0.567948 0.516609 0.772575 
0.755089 0.419641 0.633479 
0.760509 0.522953 0.553576 
0.664237 0.545968 0.673337 
0.600528 0.822677 0.378174 
0.589815 0.224615 0.863528 
0.822369 0.520971 0.428753 
0.827269 0.304615 0.553245 
0.702876 0.579006 0.609721 
0.698618 0.459737 0.683099 
0.800273 0.374740 0.580147 
0.724561 0.371935 0.681256 
0.739076 0.620079 0.539234 
0.492376 0.725769 0.641255 
0.498746 0.525632 0.814597 
0.839557 0.373103 0.485755 
0.802303 0.475980 0.491958 
0.879560 0.239281 0.377926 
0.906948 0.298832 0.154347 
0.592518 0.747998 0.523173 
0.596366 0.370092 0.829171 
0.671516 0.357468 0.758262 
0.682245 0.689237 0.533038 
0.521846 0.657004 0.698427 
0.496081 0.609906 0.760112 
0.179305 0.726369 0.714311 
0.611962 0.685756 0.590672 
0.614951 0.434080 0.774892 
0.104645 0.699840 0.744158 
0.103552 0.767355 0.653086 
0.718547 0.732791 0.392604 
0.711154 0.211425 0.740684 
0.891823 0.135996 -0.046419 
0.566713 0.151034 0.881983 
0.584028 0.857858 0.292808 
0.766214 0.076306 0.666442 
0.793265 0.725427 0.266209 
0.797795 0.264288 0.606655 
0.803023 0.590228 0.398383 
0.837767 0.635991 0.260228 
0.808633 0.087521 0.576309 
0.164198 0.106966 1.006840 
0.179633 0.914081 0.009747 
0.876219 0.082864 0.375124 
0.893485 0.487437 0.154495 
0.878659 0.556346 0.213175 
0.852693 0.093990 0.471505 
0.869686 0.434663 0.320167 
0.637811 0.254349 0.818016 
0.646238 0.781101 0.430946 
0.104723 0.905267 -0.056469 
0.087753 0.079327 1.008808 
0.089123 0.149852 1.008951 
0.094027 0.910006 0.015592 
0.729631 0.792870 0.243619 
0.704366 0.066252 0.754266 
0.651875 0.842774 0.230887 
0.623736 0.070469 0.830656 
0.749103 0.743053 0.311292 
0.741665 0.130807 0.717449 
0.671373 0.801692 0.332801 
0.654877 0.156865 0.803604 
0.824159 0.607708 0.336925 
-0.395939 0.501395 0.747226 
-0.352768 0.815776 0.167037 
-0.913254 0.387660 0.498413 
-0.287634 0.362533 0.876181 
-0.212885 0.312430 0.910703 
-0.175284 0.234380 0.942099 
-0.128040 0.158918 0.973057 
-0.297892 0.788641 0.385189 
-0.792483 0.346238 0.638406 
-0.687685 0.674878 0.274422 
-0.256733 0.666780 0.665136 
-0.582580 0.318304 0.774378 
-0.157975 0.662261 0.710332 
-0.591368 0.215478 0.795916 
-0.522235 0.754162 0.077006 
-0.872826 0.540053 0.315926 
-0.173893 0.566231 0.796816 
-0.441925 0.249266 0.852822 
-0.399546 0.800431 -0.056988 
-1.003239 0.442431 0.306812 
-0.762219 0.536781 0.474945 
-0.497452 0.749475 0.311772 
-0.130088 0.863196 0.282170 
-0.926808 0.173263 0.575252 
-0.130661 0.485250 0.865908 
-0.373030 0.189581 0.890381 
-0.321444 0.815677 -0.115986 
-1.067062 0.368693 0.288476 
-0.091904 0.880999 0.120645 
-1.027228 0.133817 0.458728 
-0.304214 0.116460 0.917579 
-0.063504 0.390192 0.923018 
-0.557732 0.614799 0.556852 
-0.251826 0.831465 -0.123859 
-1.102074 0.307367 0.295703 
-0.063352 0.890348 0.062468 
-1.062677 0.105562 0.405193 
-0.193996 0.132773 0.953074 
-0.079884 0.256314 0.961001 
-0.124873 0.080703 0.977826 
-0.394531 0.662411 0.598040 
-0.590287 0.463524 0.689184 
-0.425332 0.737214 0.443418 
-0.702101 0.485740 0.590224 
-0.498351 0.383127 0.790473 
-0.308355 0.597580 0.709126 
-0.463527 0.543618 0.694939 
-0.635343 0.669148 0.372545 
-0.166073 0.870794 0.161749 
-0.990096 0.206381 0.506031 
-0.246913 0.839941 0.227437 
-0.922433 0.294008 0.553609 
-0.580108 0.710406 0.274041 
[...]
POINT_DATA 2044
SCALARS u float 1
LOOKUP_TABLE default
6.921934
6.049074
7.174612
7.098606
1.105577
7.912166
8.582330
8.856358
8.304585
7.267568
5.554847
3.793157
2.656960
3.090057
4.776188
6.215241
7.421432
8.508332
8.884553
8.330862
5.716530
4.187683
3.085193
3.107084
4.772251
5.801334
6.456839
6.576548
6.155713
5.381227
3.986744
2.792850
2.896391
4.144775
5.675619
8.375107
9.026372
8.851931
8.050089
7.022924
5.179578
3.841850
3.291537
4.191921
5.787965
7.434578
8.161883
8.458362
7.994566
7.396370
4.898564
3.535148
2.632344
2.880267
4.130874
5.230882
5.908249
6.234616
5.956911
5.058126
3.964424
2.953826
2.873785
4.046416
5.462532
6.109542
5.340156
4.482795
3.384789
2.626345
1.874382
1.248368
0.999500
1.062678
1.315444
1.174344
1.296079
1.201410
1.110721
1.072283
1.223438
1.240626
1.359412
1.381719
1.440206
1.416744
1.521606
1.699906
1.901934
2.319039
3.028720
3.614483
4.317034
5.047614
5.669308
1.225482
1.278879
1.522166
1.624128
1.627281
1.638677
1.764854
1.897204
2.370025
2.931409
3.634086
4.181849
5.157540
5.990038
6.675975
1.030771
0.938240
1.098515
1.107896
1.172119
1.052618
1.112808
1.332642
1.875853
2.482378
3.247346
4.114913
5.042966
5.926008
6.599911
3.565217
2.704673
1.467263
1.509730
1.202862
1.951724
2.948307
4.421995
3.011321
1.934223
5.275128
2.125443
5.417090
0.899202
1.885481
0.222729
4.073574
0.495373
1.554888
1.592208
3.000634
3.111404
2.847137
1.853181
2.938112
0.647273
1.442690
2.774456
1.796168
1.338224
2.297206
2.445657
4.095948
1.389014
3.301974
2.534454
1.229872
3.339892
2.528722
4.271218
3.430496
5.079829
4.354760
3.365522
4.625093
2.511742
4.155837
2.875426
1.794167
1.584806
2.315003
2.487486
2.306494
2.500604
3.964042
3.193139
2.421143
0.735188
3.775597
2.702643
2.417172
1.555712
2.114485
0.366997
3.153163
0.914177
2.947506
3.044876
2.244586
2.816864
1.128580
1.149700
0.719863
1.513132
1.369083
2.004164
2.662748
5.574754
4.358845
1.572603
1.301219
1.616157
1.813228
1.328452
3.396524
3.233875
2.115882
0.734868
1.267184
1.968752
1.775455
0.666637
3.112710
1.399726
2.219083
1.483175
1.395117
2.670281
3.494161
1.340385
1.409514
2.158419
3.755495
4.653258
4.625494
3.738055
3.375826
4.279512
4.312182
5.062758
2.379728
4.128305
1.851192
4.801126
3.668351
2.798408
2.827652
5.199007
4.070949
3.506978
2.449214
3.715899
0.553516
1.800709
4.898771
3.280447
3.081510
5.479268
4.126067
3.857751
1.146240
4.840714
3.421192
1.175106
0.995227
5.751447
1.757869
5.165847
1.950865
4.866719
0.814480
6.368542
1.505817
4.686678
5.206620
0.541958
1.196506
3.765649
1.931939
3.194918
4.354299
1.028909
2.719367
2.456916
5.637927
5.009573
1.139640
1.276922
4.600689
6.032038
1.248904
5.559839
1.417007
5.921892
1.382846
5.739726
1.659988
4.874152
2.234628
5.799585
5.436132
1.984609
1.764846
1.620718
1.346105
4.400397
3.943773
0.322669
2.445159
2.453264
2.234788
2.454706
4.788706
3.862439
2.135046
2.072903
7.033195
6.527971
2.412033
3.036880
4.737060
5.068820
1.871206
1.825409
7.769961
7.723694
5.770108
6.224863
1.760026
1.510397
1.336180
7.928767
8.333155
5.905379
6.581971
1.542936
1.403196
1.249534
2.337173
2.057794
2.883030
2.378503
2.224087
2.495045
1.860210
0.656938
5.715419
6.146129
5.503692
5.489556
2.140855
1.351062
3.857920
3.444006
5.366046
4.779396
4.658607
4.642993
3.132227
4.047483
5.785392
6.507790
2.115216
2.035845
4.744045
5.218509
4.306617
4.637158
3.993593
4.780377
2.069599
2.782175
6.561231
6.012022
2.648140
2.883641
3.460683
3.866093
7.039122
6.637609
6.892037
7.161298
0.796210
1.918338
6.637884
6.611429
1.757631
5.421042
6.001947
3.674350
4.496011
4.686065
5.309049
7.203966
7.550563
7.657449
8.236167
7.676637
7.386990
1.985375
1.667426
1.577152
2.117435
2.266497
2.002355
1.694088
3.596259
3.743382
2.242925
2.279031
1.867200
1.967992
2.363731
2.427669
2.284223
1.877068
2.537276
1.790036
2.092240
2.192574
1.617365
3.364817
2.898153
2.927879
2.518924
1.099046
1.168935
1.390646
2.070636
2.587762
2.333444
2.627801
2.710140
2.659601
3.900662
3.590352
2.131097
2.109858
2.288174
2.311446
2.138518
1.985810
6.528803
7.335431
1.743853
1.632068
1.747435
1.807326
3.123029
3.204482
7.619039
6.576295
8.143388
7.356492
2.020687
2.352026
2.454312
2.909312
3.182580
1.884948
2.430288
2.513904
3.173449
3.049746
1.258353
1.213583
2.882984
1.941196
2.526539
2.432969
2.054159
1.650789
1.568381
2.035170
6.057529
2.279669
2.556448
1.628215
1.486158
4.503718
4.944884
2.114772
1.902782
2.795825
3.283268
4.491622
4.437961
1.537649
1.311112
1.974263
1.646329
1.978928
2.351369
3.358147
3.130153
1.212442
1.473573
4.595156
2.248447
2.426085
4.397100
4.172135
1.431517
1.595053
3.286760
3.379273
3.671122
3.724075
2.591965
2.692000
3.313653
5.242163
1.607163
1.590885
0.566836
0.677615
5.333800
5.382871
3.087126
3.581283
3.490291
4.174803
0.223289
0.653575
4.929386
4.601898
2.983470
2.493830
2.305633
2.710725
2.284884
1.730463
3.923454
3.093042
5.905429
5.330036
5.908938
5.705707
4.017391
4.707801
2.334381
1.851523
2.255562
2.087483
1.696336
2.012166
2.608667
2.497111
4.780963
4.922753
1.111751
0.773931
1.737684
2.200677
4.474603
3.771599
3.038614
2.971178
3.120252
2.956277
3.467428
3.056702
3.217163
3.286626
1.755000
1.790793
3.934925
3.995638
4.198956
4.245876
3.172068
2.998591
3.732004
0.373283
0.826005
2.460567
2.482166
3.436587
3.438561
2.680941
3.100741
3.001922
4.489662
4.331997
2.628211
2.802692
2.563237
2.598016
2.847370
2.912489
2.256530
4.626375
4.742854
6.380482
3.619326
3.514381
6.545308
6.260946
1.683915
1.286164
0.589686
0.874137
1.274483
0.874034
2.332832
2.049432
1.309204
1.390813
4.952836
4.936081
1.288436
1.499613
1.384042
1.202365
1.599835
1.280667
5.839711
5.964666
4.786396
4.728901
2.212152
1.237917
0.946005
1.297936
1.649079
0.948146
0.964207
0.901859
0.620449
0.568471
1.279461
1.047820
1.100031
1.142826
3.574438
5.323119
1.391301
5.794766
6.561833
6.937068
7.192881
7.208763
3.207580
1.473607
2.415009
1.939404
2.983872
2.922159
2.755861
4.031432
1.593217
5.062030
4.286750
5.090615
1.161484
1.470768
3.469646
6.122431
1.340199
4.712148
6.522689
5.500675
1.034473
8.157809
1.202361
7.800620
4.792914
1.627316
6.124638
1.063375
8.376145
1.171174
7.889150
6.146416
1.216858
2.374115
2.030786
1.728348
3.718273
3.167018
2.836814
2.023196
7.161859
1.299717
5.581505
1.451254
2.863207
1.917345
3.164131
1.583285
4.632718
1.322157
4.453677
1.384391
1.564014
3.656131
1.232569
5.315059
5.536877
4.807536
1.417587
4.380357
1.516862
4.270685
1.323864
3.234031
2.074005
3.161624
4.004810
1.140371
2.263690
0.364411
5.485585
1.334904
5.885315
1.201135
7.630754
1.210320
1.753736
2.510331
1.339553
6.511689
5.788749
7.023639
1.339083
4.572402
6.871592
1.267372
7.665601
1.253443
1.127305
4.414207
7.005654
0.972023
1.134520
6.735217
1.309983
2.024004
1.703372
1.713059
2.999983
3.192104
1.957695
3.120621
1.540469
4.229970
4.446690
2.533778
1.962740
3.837295
1.920692
2.926417
2.264792
1.563697
4.686497
3.936590
1.761039
1.841069
0.707461
2.248599
6.361895
1.712242
1.867976
2.441147
1.840935
1.152440
1.705167
2.384810
2.484393
0.415982
1.332864
4.119233
2.461244
1.880260
3.665387
3.574689
3.113655
4.180353
7.973316
0.991877
3.855775
7.297978
6.317305
3.179074
1.930046
1.681613
1.023573
7.493700
0.919430
7.076421
5.109652
1.762827
1.274038
3.584800
1.286368
2.217480
1.374114
2.004725
1.629414
2.012440
8.152886
6.064263
1.046651
2.086962
2.814218
3.178243
1.654297
3.043133
2.256871
2.908325
3.110222
4.558140
4.230948
1.088847
1.640322
1.473970
3.636153
3.635691
1.756672
2.739690
5.455612
4.283834
3.091457
1.278498
2.944594
5.751709
6.050815
3.679307
5.196399
3.349109
1.633713
2.632312
3.123936
4.061787
3.810061
5.380087
2.949264
4.867716
1.074751
2.464369
2.389793
1.620243
2.828717
1.988918
1.665036
2.887022
3.056026
4.852302
5.113415
6.932766
1.736610
5.825723
1.044274
6.503247
6.651253
6.311929
3.076223
4.812354
2.113951
1.176965
2.402927
3.715068
2.979302
4.412780
1.253700
3.687171
4.997188
2.845454
3.178981
4.102798
1.285100
4.109808
3.043479
7.099147
4.148291
4.693064
3.966883
2.492796
4.300163
2.923492
4.372419
1.735695
1.820760
1.930714
1.113545
2.828193
3.085696
2.761689
4.154863
1.857503
2.380308
4.302548
1.175496
1.868695
4.284767
2.805883
5.253158
4.269278
3.683374
0.933393
6.865006
2.432022
1.707716
3.512059
1.012411
7.213528
2.230843
1.222375
3.058291
4.198002
3.252110
6.762638
4.422336
4.049926
3.504497
2.475098
3.572336
6.491497
7.709808
2.395432
6.403070
1.313286
1.973714
1.528630
1.779258
5.077623
3.132956
5.118822
1.413830
5.913304
1.788868
3.763822
3.796903
3.429902
7.517035
3.758581
3.236505
3.629275
3.067838
1.825891
5.175758
3.718945
5.490431
6.368207
4.318404
5.905523
2.605399
2.339744
3.110596
3.945612
1.451995
2.543754
3.147054
3.296641
2.201574
3.411899
1.916826
2.186947
1.567621
1.016782
5.205248
7.155878
1.158275
5.245228
2.944528
2.657628
2.541078
3.490763
2.357203
5.531938
2.905409
2.490829
3.188684
4.579471
2.307785
1.450809
5.899270
1.491720
2.174735
2.139389
3.006963
2.965962
2.922877
6.064296
5.318113
4.800688
3.722439
5.916500
3.434463
1.222903
3.313481
7.753919
5.394870
3.959644
5.811069
1.003830
3.668756
1.237806
5.116314
3.535308
2.486861
4.984617
5.184681
4.428010
7.514643
1.479722
1.168812
1.146840
1.716021
4.640508
2.731112
2.480149
6.249028
7.925448
5.134640
6.287245
3.490763
3.393605
3.096941
7.506573
5.770139
1.868290
2.740700
3.640019
4.370767
7.270759
3.812745
4.975393
3.428660
3.162211
2.071184
1.115174
6.282520
4.377937
4.481689
6.784643
6.512005
2.288517
2.933492
7.149379
3.033690
3.463959
5.539700
3.509375
5.655573
2.866535
2.869441
7.581950
1.894465
2.826217
8.090462
4.922347
4.386896
4.311300
1.367081
2.545918
2.301625
6.031849
2.101412
3.769722
1.269082
4.481372
2.785241
6.518321
3.302065
1.083945
3.644790
3.253004
1.563658
2.330034
3.431467
1.275308
0.981098
3.804632
2.631483
3.333614
5.204928
5.315392
5.876629
3.792486
4.156915
2.809041
5.155008
3.606321
6.373883
2.035134
3.841572
3.970139
2.200568
3.520498
1.149129
0.973532
3.894903
1.778768
3.259583
3.655220
7.904040
2.124777
2.867891
4.196653
3.436319
4.831049
2.513394
1.399837
1.527590
1.311440
4.468066
5.263967
4.442728
3.739387
1.435297
3.146262
1.407715
3.715130
2.735703
1.251595
2.463509
1.929804
2.680797
1.443374
3.925328
5.521299
2.652071
3.625800
4.082574
2.551362
3.680683
4.585202
4.398755
1.759179
3.079175
4.746941
5.563092
4.691069
2.100205
2.919430
3.208725
4.595624
1.815446
1.590905
3.618051
6.822159
4.557975
2.813899
3.663146
8.230329
2.499221
2.099584
1.931501
4.471792
2.150973
4.493833
1.151548
2.694817
4.667282
5.443428
2.401667
2.621593
2.967970
1.728068
4.102051
3.561846
5.325116
3.244318
2.244971
1.965079
7.309092
2.736568
1.126714
1.416647
3.227521
3.561417
4.518679
1.707648
6.421035
2.872697
5.881916
5.820557
3.092629
2.924299
3.260186
4.226477
5.398978
3.636835
5.089654
4.724308
3.481366
2.997066
4.610964
3.653966
1.910374
4.806717
3.458830
1.548288
2.412537
2.063045
1.074640
1.625428
7.314565
0.920083
1.357406
8.050674
1.769686
3.059043
2.435967
0.853857
0.526543
0.611704
3.998512
1.924460
2.148086
1.107779
2.347857
1.227432
0.944927
0.528105
1.683135
5.624920
4.202784
4.716895
2.174802
1.347257
1.209145
1.197700
1.854922
1.174710
0.804358
1.595828
3.932309
4.517701
6.240600
0.988205
0.276148
0.669358
1.076221
1.107059
0.962760
0.947649
1.227306
0.653527
1.571738
1.199008
0.804503
1.375344
0.916728
1.077124
1.386992
1.443117
0.875668
1.167449
1.198805
1.193001
1.508963
1.134181
0.796363
0.289031
0.316509
1.028757
1.028147
0.425400
0.482397
2.582980
1.354697
1.764746
0.714735
1.189185
1.696069
1.765776
0.332705
2.545505
0.680253
2.487812
1.183267
2.769676
0.756378
1.039584
1.475817
1.093645
1.603800
2.623094
1.397734
1.148294
0.952134
1.400677
1.784515
5.002313
6.334008
5.343009
4.108373
4.080149
4.604361
3.335770
6.063846
3.487613
5.971399
4.878676
2.850983
1.983876
2.790906
1.934617
0.746732
4.056190
2.543113
1.856749
1.394040
0.727184
2.546073
1.450073
0.521146
1.070836
1.191566
1.613798
1.823539
1.331419
1.814006
1.646413
1.490176
1.445526
1.771139
1.433883
1.362573
2.557159
2.089781
1.319189
1.495768
2.394924
1.060112
1.421894
1.999468
1.118013
1.394834
2.423914
1.229224
1.287964
0.407748
1.199739
5.207382
5.740106
5.247346
5.080349
1.284059
1.420719
1.298399
1.264525
1.181639
1.699063
1.297717
1.684042
1.547379
2.096199
3.835254
1.474306
1.522873
0.693657
2.536768
2.206628
1.326566
3.200980
1.147483
1.337551
2.470458
3.990258
3.555349
2.526109
3.040764
2.825241
2.412737
0.614268
2.675358
2.333880
3.589007
1.390543
0.769884
0.834896
0.471720
1.400427
1.413248
2.190151
2.433442
2.188569
1.609215
1.321393
1.463332
1.116954
1.896413
1.201089
4.544495
3.202281
3.329978
4.036360
3.719074
4.232010
2.325715
1.114447
2.271345
3.468137
1.664439
1.812240
2.256753
2.388496
4.850329
1.136258
1.158002
0.584982
0.178555
1.291308
1.299843
1.255452
2.532108
1.169096
5.086284
2.562741
4.215474
1.461606
1.261376
2.487821
2.427417
2.780568
1.105970
1.978468
1.672963
0.407069
0.649372
1.881602
1.417185
4.150666
1.168112
2.029565
0.883022
0.903953
0.680050
2.391974
0.784640
0.574806
0.208479
0.705987
0.383166
0.725810
1.167153
3.130228
3.635985
3.308794
0.288163
4.845435
1.037185
0.919081
1.108477
1.070223
0.963030
0.860419
2.603724
3.843632
2.243550
1.641634
1.937004
1.442668
0.788575
1.035550
1.123105
0.889742
1.391522
1.008688
2.959570
3.355844
1.561896
1.530524
0.854464
1.143357
1.602737
2.778050
2.917276
1.668452
4.764898
1.761870
0.909689
4.914727
1.040333
6.145576
6.900735
5.841216
5.196249
5.242113
5.647669
3.964369
4.587585
1.027808
0.945328
0.944457
1.108469
1.063253
1.085942
1.052756
0.766885
0.971625
1.883363
5.518217
2.287076
1.845602
2.069385
3.152291
3.110218
3.028117
3.214650
3.404448
2.127187
1.775346
3.172744
2.231803
3.284619
3.194439
4.268601
4.669623
2.052195
2.212085
3.208845
4.587090
1.795945
3.207954
2.026305
1.461005
3.025149
2.988114
3.302984
3.237980
3.848976
3.207478
3.956272
2.705911
3.175925
3.064712
2.554156
4.278748
4.022049
1.365829
3.874667
1.097996
0.565978
0.717402
0.955334
0.981577
1.393280
0.979967
1.182552
0.956430
0.519355
1.885391
1.473570
0.712517
0.882767
1.409192
0.895828
0.903757
3.946777
2.120315
1.460848
2.154190
0.810324
1.465675
1.132395
1.246698
0.653999
0.361792
2.010619
2.321808
2.552492
1.818890
1.303368
0.873739
1.114447
0.846997
0.637821
1.828564
2.039770
1.307808
1.126347
1.355748
1.434091
0.982185
3.951912
3.450475
2.833555
3.200746
2.606114
2.124017
1.647404
1.156040
0.873314
1.416083
1.115707
1.090186
0.984067
4.324820
3.323304
4.132337
5.384685
2.018513
1.315119
1.692817
1.745584
2.631299
1.911213
2.371586
1.731914
1.947521
4.318787
3.606959
3.598197
2.100194
2.280148
1.696098
1.535767
1.559011
1.705010
1.800469
2.185567
1.638490
1.357307
1.262258
1.256563
2.981510
3.712957
3.834628
2.481881
3.095693
3.562547
2.580160
2.047217
2.563708
1.303383
6.284161
5.674418
0.787927
3.122739
1.537573
1.373066
1.781651
2.063600
2.143696
0.962004
5.374938
4.664954
4.729852
4.377364
2.352650
1.271214
1.347677
1.369940
1.048298
3.803655
3.087953
2.666442
2.634280
2.094186
1.926278
2.504248
2.988831
3.132562
4.746296
0.989719
3.438733
3.161533
2.395048
1.880097
1.396597
1.066963
0.912163
0.828500
2.514315
2.097803
4.363878
1.826861
4.342603
2.936265
3.473232
0.932366
1.157611
1.188975
2.568881
1.958772
2.211347
3.514744
2.427678
2.006178
5.210301
1.203455
1.467352
0.986466
0.944076
4.499667
1.904880
1.494295
2.065852
2.315228
1.865295
1.596219
1.748984
1.254023
3.704388
4.006041
3.660311
3.361971
1.590650
2.665512
2.402549
2.911663
4.748744
3.231935
6.086058
0.906774
3.189065
4.646194
4.033124
4.079905
3.092341
2.390934
3.507340
2.255749
2.432254
5.017041
4.443439
1.028618
0.933484
0.699915
0.992435
0.839705
0.771848
3.555948
1.536219
1.469465
1.433378
3.488178
2.246209
3.728598
2.733416
2.326298
2.299479
2.477272
2.421108
1.834057
2.177913
2.455256
1.826750
1.661626
1.325273
1.185091
0.971651
1.607678
2.538809
4.152472
1.043143
0.969034
0.765434
2.388436
2.490611
1.334838
2.193018
2.825156
1.679442
2.746209
2.096529
3.057446
3.648942
2.593154
1.952458
2.928531
4.861409
5.870890
4.662102
4.110869
2.747827
2.710279
2.786652
4.264975
3.607232
2.646482
3.579885
1.653414
1.472241
2.644515
2.327348
2.394236
1.748571
2.925465
4.300358
4.795092
3.713569
1.402708
1.078132
1.564143
1.761082
1.130751
0.917237
1.150285
1.156222
2.551222
3.098204
2.542104
4.178025
3.177792
2.506373
2.870146
2.729478
3.386706
1.565531
3.661506
1.681021
1.326320
6.140569
1.699881
1.492576
2.673329
2.177417
4.933092
2.703736
2.055146
1.066179
1.924122
1.550440
2.501857
1.844858
3.913745
3.375435
2.315362
2.257780
1.759875
2.359043
3.011009
2.532156
3.158650
2.547745
1.841818
0.770998
0.881029
0.551310
1.969783
1.255383
1.322561
3.826657
3.192355
1.874694
4.343573
3.886443
6.530858
5.003304
2.871310
2.163958
1.712078
3.151775
2.879575
3.898581
2.111971
2.262126
1.953964
2.106854
4.204876
1.632294
1.005720
4.822860
4.926788
4.224604
3.596276
3.047970
2.022396
2.360896
2.181037
2.092053
2.125970
2.080601
2.268967
1.022921
0.890733
1.118490
2.202617
0.911406
3.090215
3.011411
2.428440
4.612277
3.063633
1.175431
1.143923
1.137715
0.774930
1.790813
2.211946
2.076137
1.977740
1.034817
4.446871
4.941069
4.004654
4.048964
0.860550
1.232540
0.927285
2.251452
2.504015
1.445873
1.017388
0.858244
0.945377
0.900130
2.419134
1.796342
2.416687
2.228887
1.561427
3.134619
2.258371
1.947929
1.420434
3.169964
2.516640
1.796845
2.599070
5.410218
4.845931
2.427858
3.283693
2.490587
2.101081
1.298772
2.717030
4.493525
3.497671
2.851065
2.910369
1.602332
1.720002
2.013498
1.451745
4.737475
5.031764
1.064463
1.065868
1.106424
1.041914
1.440491
1.531780
3.760024
1.246554
0.980666
2.025600
1.711107
2.323019
2.644734
2.502355
1.813059
1.759927
1.380253
3.413372
3.486637
4.140779
3.190195
2.861499
1.414508
0.511189
0.936132
0.421211
0.617086
0.381817
0.358214
0.630735
0.361968
0.982349
0.934511
0.546010
0.833408
0.432391
1.878088
1.501896
1.791326
2.086160
1.944699
1.933667
0.172504
0.989887
0.186314
0.488296
0.861400
0.519039
0.490069
0.558525
0.889506
0.903902
1.229626
1.663625
1.341355
1.934140
0.772659
0.834902
0.877439
0.443986
0.830982
0.440331
0.182517
0.224401
0.033145
1.225911
0.826654
1.773195
1.142493
0.661388
0.623480
0.807791
0.836163
2.369841
0.796948
0.206425
0.189937
0.336599
2.204497
1.152102
1.640041
0.197153
0.430523
2.421090
0.596994
0.464500
0.809484
0.905540
0.546260
0.507308
2.451759
1.201732
2.496236
0.896720
1.768786
1.031834
0.358236
0.562839
2.540318
1.873318
1.666581
1.399994
1.556800
2.039411
1.880446
2.379549
1.987975
3.024075
2.667481
3.338844
2.432216
2.673441
3.297288
2.864308
2.291032
2.381628
