# vtk DataFile Version 2.0
Unstructured Grid Example
ASCII
DATASET UNSTRUCTURED_GRID
POINTS 2044 float
0.958231 0.020963 -0.045891 
0.016150 0.965356 -0.042607 
-1.042328 0.014621 0.051026 
0.019882 -1.039737 0.050375 
0.008382 0.006236 1.000554 
0.950250 -0.077311 -0.056192 
0.932937 -0.177303 -0.063162 
0.907857 -0.275453 -0.066287 
0.877249 -0.369586 -0.061881 
0.840884 -0.461600 -0.054307 
0.797873 -0.553578 -0.040375 
0.746214 -0.639067 -0.023419 
0.687974 -0.722732 -0.004678 
0.625896 -0.796898 0.014565 
0.554889 -0.863430 0.031948 
0.475564 -0.918571 0.045807 
0.392555 -0.964110 0.056707 
0.305118 -1.002342 0.064812 
0.212260 -1.029145 0.066591 
0.117099 -1.041480 0.060885 
-0.075612 -1.028226 0.036501 
-0.170479 -1.005226 0.019161 
-0.265492 -0.972275 0.001559 
-0.358688 -0.931735 -0.015065 
-0.445263 -0.876383 -0.036408 
-0.530122 -0.818631 -0.046915 
-0.611229 -0.756618 -0.054108 
-0.687692 -0.684776 -0.054746 
-0.758875 -0.611988 -0.051876 
-0.821740 -0.532309 -0.044239 
-0.879577 -0.449213 -0.030423 
-0.931557 -0.362036 -0.014600 
-0.975678 -0.270511 0.003011 
-1.008085 -0.176976 0.021560 
-1.030530 -0.082310 0.037260 
-1.044253 0.111182 0.060824 
-1.033603 0.206966 0.066065 
-1.009368 0.299885 0.064616 
-0.972120 0.390501 0.058432 
-0.925955 0.472308 0.049764 
-0.867646 0.548943 0.032396 
-0.802839 0.620947 0.015845 
-0.727442 0.683801 -0.003666 
-0.646603 0.742406 -0.022085 
-0.560159 0.794459 -0.040110 
-0.470032 0.838952 -0.055686 
-0.375091 0.879103 -0.062468 
-0.280151 0.910590 -0.064459 
-0.183330 0.938248 -0.061442 
-0.084038 0.954398 -0.055131 
0.115793 0.966075 -0.031389 
0.214854 0.958881 -0.015767 
0.310819 0.942847 -0.000378 
0.404559 0.916834 0.014650 
0.495135 0.883493 0.031015 
0.579719 0.840321 0.042291 
0.656216 0.788390 0.049121 
0.727299 0.724958 0.052479 
0.786851 0.657156 0.049675 
0.840996 0.578319 0.041020 
0.884318 0.493834 0.029968 
0.918539 0.404386 0.016784 
0.940425 0.311871 0.000856 
0.953158 0.215954 -0.016357 
0.959959 0.118350 -0.031899 
0.961831 0.014024 0.052927 
0.954518 0.007671 0.152610 
0.937765 0.004681 0.252738 
0.912761 0.004362 0.352965 
0.876113 0.001997 0.447316 
0.830835 0.000244 0.537847 
0.777506 -0.001903 0.623636 
0.714426 -0.002285 0.701570 
0.644264 -0.001766 0.773769 
0.567192 -0.001547 0.835651 
0.481528 -0.000382 0.886471 
0.393146 0.000685 0.930242 
0.299757 0.002775 0.962581 
0.203813 0.004029 0.985045 
0.106343 0.004824 0.998404 
0.008765 0.105129 0.997758 
0.007733 0.203516 0.983438 
0.007914 0.300114 0.959433 
0.006956 0.393599 0.925727 
0.006840 0.483140 0.882941 
0.006091 0.567358 0.829556 
0.003859 0.645973 0.765373 
0.003389 0.717129 0.694991 
0.002590 0.779196 0.617692 
0.001908 0.832656 0.533742 
0.002611 0.877254 0.443241 
0.003043 0.913888 0.350115 
0.004769 0.940756 0.253081 
0.007069 0.957664 0.153898 
0.010677 0.965315 0.054754 
-0.088942 0.006623 0.992314 
-0.185415 0.005361 0.975876 
-0.278866 0.005138 0.949821 
-0.369540 0.006180 0.918855 
-0.456525 0.003846 0.880846 
-0.540808 0.003052 0.835104 
-0.619460 0.003206 0.779764 
-0.694271 0.002766 0.719349 
-0.766299 0.003641 0.655480 
-0.830003 0.003536 0.583043 
-0.886988 0.003128 0.505265 
-0.934099 0.002765 0.420812 
-0.976437 0.004564 0.334791 
-1.008652 0.004828 0.244212 
-1.032063 0.008660 0.148571 
0.007479 -0.091953 0.993631 
0.005748 -0.188756 0.978407 
0.005240 -0.282346 0.952749 
0.004470 -0.373927 0.920239 
0.003737 -0.461775 0.877863 
0.002510 -0.545935 0.831748 
0.001566 -0.625238 0.777971 
0.000326 -0.698755 0.716549 
-0.000226 -0.768329 0.651514 
0.000894 -0.830461 0.579021 
0.000794 -0.886268 0.501806 
0.003186 -0.934387 0.420041 
0.008417 -0.976116 0.333164 
0.012737 -1.007294 0.242834 
0.015546 -1.029322 0.147949 
0.774858 0.445360 0.491553 
0.345758 0.378351 0.887613 
0.341552 0.863416 0.387496 
0.886690 0.325017 0.328421 
0.923302 0.272685 0.240963 
0.940355 0.212235 0.204255 
0.951102 0.207966 0.118009 
0.525558 0.797481 0.361617 
0.527824 0.320745 0.819390 
0.279163 0.687304 0.695718 
0.731713 0.637669 0.334808 
0.730819 0.283542 0.646852 
0.762255 0.639927 0.237657 
0.764982 0.181306 0.629716 
0.213694 0.542143 0.834436 
0.209866 0.821202 0.534327 
0.840989 0.513379 0.248750 
0.828286 0.206141 0.523392 
0.142737 0.425874 0.908714 
0.138367 0.894494 0.403334 
0.404128 0.759288 0.545737 
0.408710 0.521723 0.783179 
0.437209 0.892812 0.177441 
0.433236 0.154016 0.907264 
0.888862 0.439908 0.180666 
0.886574 0.177296 0.414313 
0.098265 0.353095 0.942399 
0.095046 0.925377 0.319936 
0.296550 0.942768 0.112643 
0.290704 0.115862 0.961780 
0.927267 0.359658 0.100365 
0.920456 0.096308 0.330515 
0.570222 0.585805 0.621850 
0.092386 0.287786 0.963716 
0.089873 0.943321 0.251645 
0.239210 0.954308 0.075258 
0.232898 0.089649 0.977955 
0.947077 0.114878 0.208137 
0.944084 0.282921 0.069390 
0.960234 0.108061 0.109064 
0.659059 0.424629 0.658162 
0.660463 0.631808 0.474471 
0.528029 0.723069 0.497686 
0.530851 0.456943 0.749593 
0.770087 0.554499 0.386268 
0.765460 0.344829 0.574740 
0.713084 0.502304 0.540191 
0.386949 0.651550 0.684867 
0.337236 0.187418 0.940515 
0.339289 0.920001 0.193624 
0.399284 0.879047 0.292950 
0.399379 0.274837 0.900961 
0.335483 0.730681 0.623376 
0.337826 0.608498 0.747268 
0.471486 0.778550 0.465250 
0.474645 0.430060 0.802327 
0.279731 0.473930 0.861742 
0.274276 0.841352 0.474228 
0.487385 0.847387 0.279510 
0.486819 0.246498 0.867514 
0.309389 0.540824 0.809724 
0.305239 0.791789 0.548856 
0.237378 0.413653 0.901416 
0.232177 0.881350 0.405563 
0.844728 0.437248 0.340922 
0.860582 0.269734 0.438159 
0.437638 0.350013 0.859815 
0.434769 0.834543 0.376213 
0.373693 0.817114 0.465300 
0.378942 0.447690 0.840487 
0.107057 0.581472 0.818221 
0.104972 0.815412 0.561852 
0.209921 0.763293 0.621996 
0.210664 0.626017 0.769612 
0.083656 0.497989 0.875721 
0.078460 0.865988 0.470041 
0.653289 0.298936 0.725607 
0.654914 0.710526 0.353611 
0.518921 0.867929 0.109850 
0.510496 0.073097 0.873015 
0.184974 0.912456 0.342006 
0.187957 0.358614 0.930474 
0.229102 0.945939 0.179192 
0.227101 0.193483 0.966233 
0.436420 0.684479 0.622040 
0.426598 0.579361 0.730807 
0.272871 0.299717 0.935801 
0.270228 0.913707 0.295665 
0.918864 0.204558 0.304200 
0.911093 0.357698 0.211868 
0.178411 0.492730 0.870972 
0.173222 0.856984 0.478420 
0.443636 0.901558 0.079694 
0.434739 0.057125 0.912070 
0.372363 0.924151 0.096421 
0.365327 0.085906 0.941095 
0.067538 0.431871 0.910481 
0.063237 0.898604 0.397776 
0.118209 0.956546 0.170929 
0.118166 0.204313 0.981911 
0.164531 0.283362 0.957598 
0.163057 0.937299 0.260498 
0.616999 0.497644 0.648839 
0.618444 0.618271 0.542370 
0.554865 0.665484 0.557399 
0.554830 0.515192 0.693504 
0.739835 0.422828 0.562780 
0.746741 0.522401 0.462841 
0.649062 0.543163 0.582157 
0.571037 0.805136 0.275166 
0.567757 0.228152 0.817643 
0.813211 0.508768 0.341545 
0.815033 0.307677 0.515603 
0.684596 0.574122 0.508512 
0.683292 0.462594 0.605990 
0.786789 0.378258 0.521774 
0.710456 0.380344 0.622882 
0.714900 0.604152 0.431564 
0.484346 0.713461 0.555198 
0.486296 0.519800 0.740655 
0.834058 0.373747 0.433523 
0.797604 0.474667 0.412419 
0.890971 0.240047 0.374749 
0.937852 0.275691 0.155171 
0.576954 0.736438 0.419921 
0.578132 0.373055 0.761289 
0.654941 0.365325 0.694774 
0.658226 0.673642 0.419077 
0.511116 0.648616 0.610996 
0.484224 0.601572 0.678660 
0.176260 0.705490 0.701698 
0.599512 0.675941 0.488078 
0.600427 0.440137 0.703231 
0.098731 0.675446 0.741909 
0.098909 0.748403 0.661735 
0.694793 0.706178 0.274533 
0.692346 0.218807 0.708858 
0.963110 0.098896 0.029835 
0.543469 0.152832 0.847244 
0.548770 0.839858 0.196238 
0.749772 0.082037 0.665073 
0.757465 0.683655 0.141203 
0.787004 0.266150 0.576275 
0.789270 0.573561 0.300225 
0.813215 0.601542 0.156894 
0.804030 0.092757 0.585609 
0.145991 0.095884 0.992553 
0.150717 0.964155 0.066121 
0.892434 0.079132 0.413067 
0.897460 0.448486 0.098267 
0.865754 0.518584 0.128752 
0.857278 0.094584 0.493080 
0.875768 0.420054 0.264038 
0.616986 0.261034 0.770080 
0.619599 0.758735 0.315150 
0.074090 0.968440 0.024848 
0.068894 0.066423 1.000140 
0.070162 0.135269 0.995621 
0.071663 0.965328 0.094165 
0.688504 0.754927 0.126988 
0.680796 0.072372 0.743116 
0.608105 0.816383 0.123164 
0.599479 0.073967 0.812689 
0.722159 0.706073 0.192823 
0.719494 0.136991 0.698749 
0.638728 0.775054 0.217146 
0.633587 0.163078 0.775757 
0.804381 0.584485 0.236947 
-0.430588 0.471798 0.762060 
-0.367462 0.848862 0.286026 
-0.878705 0.378144 0.387478 
-0.317854 0.333584 0.883932 
-0.240376 0.288886 0.921768 
-0.202562 0.214702 0.950861 
-0.150772 0.141443 0.976407 
-0.313640 0.791124 0.478201 
-0.792300 0.328442 0.555724 
-0.681884 0.677963 0.276593 
-0.277386 0.640228 0.705362 
-0.614450 0.296236 0.738807 
-0.175880 0.634743 0.745247 
-0.625340 0.196789 0.760310 
-0.530351 0.799269 0.168908 
-0.835599 0.535806 0.242054 
-0.196855 0.533608 0.819286 
-0.479679 0.227446 0.844175 
-0.412188 0.868321 0.077104 
-0.930411 0.425317 0.188483 
-0.756874 0.523584 0.425216 
-0.511543 0.752973 0.375261 
-0.146834 0.883633 0.380262 
-0.903108 0.160052 0.469990 
-0.152271 0.453694 0.878055 
-0.406907 0.170005 0.891634 
-0.337337 0.898031 0.027995 
-0.974994 0.351802 0.151823 
-0.106137 0.930680 0.233079 
-0.975449 0.118969 0.336584 
-0.336385 0.099447 0.927591 
-0.082855 0.364803 0.928502 
-0.575643 0.593115 0.562335 
-0.271145 0.918089 0.021176 
-1.000937 0.288150 0.149626 
-0.078679 0.946052 0.175165 
-0.998811 0.091602 0.280092 
-0.221231 0.116364 0.962234 
-0.099218 0.233870 0.966289 
-0.146869 0.066442 0.983382 
-0.417422 0.637653 0.635123 
-0.615573 0.438545 0.663028 
-0.447230 0.724138 0.499740 
-0.713388 0.465724 0.544685 
-0.532491 0.355886 0.771307 
-0.334714 0.566009 0.743353 
-0.490088 0.514609 0.701601 
-0.643553 0.661481 0.381048 
-0.179476 0.909219 0.277365 
-0.945743 0.191817 0.382768 
-0.264796 0.867101 0.340897 
-0.892357 0.279215 0.440756 
-0.595593 0.720264 0.316123 
[...]
POINT_DATA 2044
SCALARS u float 1
LOOKUP_TABLE default
6.921934
6.049074
7.174612
7.098606
1.105577
7.912166
8.582330
8.856358
8.304585
7.267568
5.554847
3.793157
2.656960
3.090057
4.776188
6.215241
7.421432
8.508332
8.884553
8.330862
5.716530
4.187683
3.085193
3.107084
4.772251
5.801334
6.456839
6.576548
6.155713
5.381227
3.986744
2.792850
2.896391
4.144775
5.675619
8.375107
9.026372
8.851931
8.050089
7.022924
5.179578
3.841850
3.291537
4.191921
5.787965
7.434578
8.161883
8.458362
7.994566
7.396370
4.898564
3.535148
2.632344
2.880267
4.130874
5.230882
5.908249
6.234616
5.956911
5.058126
3.964424
2.953826
2.873785
4.046416
5.462532
6.109542
5.340156
4.482795
3.384789
2.626345
1.874382
1.248368
0.999500
1.062678
1.315444
1.174344
1.296079
1.201410
1.110721
1.072283
1.223438
1.240626
1.359412
1.381719
1.440206
1.416744
1.521606
1.699906
1.901934
2.319039
3.028720
3.614483
4.317034
5.047614
5.669308
1.225482
1.278879
1.522166
1.624128
1.627281
1.638677
1.764854
1.897204
2.370025
2.931409
3.634086
4.181849
5.157540
5.990038
6.675975
1.030771
0.938240
1.098515
1.107896
1.172119
1.052618
1.112808
1.332642
1.875853
2.482378
3.247346
4.114913
5.042966
5.926008
6.599911
3.565217
2.704673
1.467263
1.509730
1.202862
1.951724
2.948307
4.421995
3.011321
1.934223
5.275128
2.125443
5.417090
0.899202
1.885481
0.222729
4.073574
0.495373
1.554888
1.592208
3.000634
3.111404
2.847137
1.853181
2.938112
0.647273
1.442690
2.774456
1.796168
1.338224
2.297206
2.445657
4.095948
1.389014
3.301974
2.534454
1.229872
3.339892
2.528722
4.271218
3.430496
5.079829
4.354760
3.365522
4.625093
2.511742
4.155837
2.875426
1.794167
1.584806
2.315003
2.487486
2.306494
2.500604
3.964042
3.193139
2.421143
0.735188
3.775597
2.702643
2.417172
1.555712
2.114485
0.366997
3.153163
0.914177
2.947506
3.044876
2.244586
2.816864
1.128580
1.149700
0.719863
1.513132
1.369083
2.004164
2.662748
5.574754
4.358845
1.572603
1.301219
1.616157
1.813228
1.328452
3.396524
3.233875
2.115882
0.734868
1.267184
1.968752
1.775455
0.666637
3.112710
1.399726
2.219083
1.483175
1.395117
2.670281
3.494161
1.340385
1.409514
2.158419
3.755495
4.653258
4.625494
3.738055
3.375826
4.279512
4.312182
5.062758
2.379728
4.128305
1.851192
4.801126
3.668351
2.798408
2.827652
5.199007
4.070949
3.506978
2.449214
3.715899
0.553516
1.800709
4.898771
3.280447
3.081510
5.479268
4.126067
3.857751
1.146240
4.840714
3.421192
1.175106
0.995227
5.751447
1.757869
5.165847
1.950865
4.866719
0.814480
6.368542
1.505817
4.686678
5.206620
0.541958
1.196506
3.765649
1.931939
3.194918
4.354299
1.028909
2.719367
2.456916
5.637927
5.009573
1.139640
1.276922
4.600689
6.032038
1.248904
5.559839
1.417007
5.921892
1.382846
5.739726
1.659988
4.874152
2.234628
5.799585
5.436132
1.984609
1.764846
1.620718
1.346105
4.400397
3.943773
0.322669
2.445159
2.453264
2.234788
2.454706
4.788706
3.862439
2.135046
2.072903
7.033195
6.527971
2.412033
3.036880
4.737060
5.068820
1.871206
1.825409
7.769961
7.723694
5.770108
6.224863
1.760026
1.510397
1.336180
7.928767
8.333155
5.905379
6.581971
1.542936
1.403196
1.249534
2.337173
2.057794
2.883030
2.378503
2.224087
2.495045
1.860210
0.656938
5.715419
6.146129
5.503692
5.489556
2.140855
1.351062
3.857920
3.444006
5.366046
4.779396
4.658607
4.642993
3.132227
4.047483
5.785392
6.507790
2.115216
2.035845
4.744045
5.218509
4.306617
4.637158
3.993593
4.780377
2.069599
2.782175
6.561231
6.012022
2.648140
2.883641
3.460683
3.866093
7.039122
6.637609
6.892037
7.161298
0.796210
1.918338
6.637884
6.611429
1.757631
5.421042
6.001947
3.674350
4.496011
4.686065
5.309049
7.203966
7.550563
7.657449
8.236167
7.676637
7.386990
1.985375
1.667426
1.577152
2.117435
2.266497
2.002355
1.694088
3.596259
3.743382
2.242925
2.279031
1.867200
1.967992
2.363731
2.427669
2.284223
1.877068
2.537276
1.790036
2.092240
2.192574
1.617365
3.364817
2.898153
2.927879
2.518924
1.099046
1.168935
1.390646
2.070636
2.587762
2.333444
2.627801
2.710140
2.659601
3.900662
3.590352
2.131097
2.109858
2.288174
2.311446
2.138518
1.985810
6.528803
7.335431
1.743853
1.632068
1.747435
1.807326
3.123029
3.204482
7.619039
6.576295
8.143388
7.356492
2.020687
2.352026
2.454312
2.909312
3.182580
1.884948
2.430288
2.513904
3.173449
3.049746
1.258353
1.213583
2.882984
1.941196
2.526539
2.432969
2.054159
1.650789
1.568381
2.035170
6.057529
2.279669
2.556448
1.628215
1.486158
4.503718
4.944884
2.114772
1.902782
2.795825
3.283268
4.491622
4.437961
1.537649
1.311112
1.974263
1.646329
1.978928
2.351369
3.358147
3.130153
1.212442
1.473573
4.595156
2.248447
2.426085
4.397100
4.172135
1.431517
1.595053
3.286760
3.379273
3.671122
3.724075
2.591965
2.692000
3.313653
5.242163
1.607163
1.590885
0.566836
0.677615
5.333800
5.382871
3.087126
3.581283
3.490291
4.174803
0.223289
0.653575
4.929386
4.601898
2.983470
2.493830
2.305633
2.710725
2.284884
1.730463
3.923454
3.093042
5.905429
5.330036
5.908938
5.705707
4.017391
4.707801
2.334381
1.851523
2.255562
2.087483
1.696336
2.012166
2.608667
2.497111
4.780963
4.922753
1.111751
0.773931
1.737684
2.200677
4.474603
3.771599
3.038614
2.971178
3.120252
2.956277
3.467428
3.056702
3.217163
3.286626
1.755000
1.790793
3.934925
3.995638
4.198956
4.245876
3.172068
2.998591
3.732004
0.373283
0.826005
2.460567
2.482166
3.436587
3.438561
2.680941
3.100741
3.001922
4.489662
4.331997
2.628211
2.802692
2.563237
2.598016
2.847370
2.912489
2.256530
4.626375
4.742854
6.380482
3.619326
3.514381
6.545308
6.260946
1.683915
1.286164
0.589686
0.874137
1.274483
0.874034
2.332832
2.049432
1.309204
1.390813
4.952836
4.936081
1.288436
1.499613
1.384042
1.202365
1.599835
1.280667
5.839711
5.964666
4.786396
4.728901
2.212152
1.237917
0.946005
1.297936
1.649079
0.948146
0.964207
0.901859
0.620449
0.568471
1.279461
1.047820
1.100031
1.142826
3.574438
5.323119
1.391301
5.794766
6.561833
6.937068
7.192881
7.208763
3.207580
1.473607
2.415009
1.939404
2.983872
2.922159
2.755861
4.031432
1.593217
5.062030
4.286750
5.090615
1.161484
1.470768
3.469646
6.122431
1.340199
4.712148
6.522689
5.500675
1.034473
8.157809
1.202361
7.800620
4.792914
1.627316
6.124638
1.063375
8.376145
1.171174
7.889150
6.146416
1.216858
2.374115
2.030786
1.728348
3.718273
3.167018
2.836814
2.023196
7.161859
1.299717
5.581505
1.451254
2.863207
1.917345
3.164131
1.583285
4.632718
1.322157
4.453677
1.384391
1.564014
3.656131
1.232569
5.315059
5.536877
4.807536
1.417587
4.380357
1.516862
4.270685
1.323864
3.234031
2.074005
3.161624
4.004810
1.140371
2.263690
0.364411
5.485585
1.334904
5.885315
1.201135
7.630754
1.210320
1.753736
2.510331
1.339553
6.511689
5.788749
7.023639
1.339083
4.572402
6.871592
1.267372
7.665601
1.253443
1.127305
4.414207
7.005654
0.972023
1.134520
6.735217
1.309983
2.024004
1.703372
1.713059
2.999983
3.192104
1.957695
3.120621
1.540469
4.229970
4.446690
2.533778
1.962740
3.837295
1.920692
2.926417
2.264792
1.563697
4.686497
3.936590
1.761039
1.841069
0.707461
2.248599
6.361895
1.712242
1.867976
2.441147
1.840935
1.152440
1.705167
2.384810
2.484393
0.415982
1.332864
4.119233
2.461244
1.880260
3.665387
3.574689
3.113655
4.180353
7.973316
0.991877
3.855775
7.297978
6.317305
3.179074
1.930046
1.681613
1.023573
7.493700
0.919430
7.076421
5.109652
1.762827
1.274038
3.584800
1.286368
2.217480
1.374114
2.004725
1.629414
2.012440
8.152886
6.064263
1.046651
2.086962
2.814218
3.178243
1.654297
3.043133
2.256871
2.908325
3.110222
4.558140
4.230948
1.088847
1.640322
1.473970
3.636153
3.635691
1.756672
2.739690
5.455612
4.283834
3.091457
1.278498
2.944594
5.751709
6.050815
3.679307
5.196399
3.349109
1.633713
2.632312
3.123936
4.061787
3.810061
5.380087
2.949264
4.867716
1.074751
2.464369
2.389793
1.620243
2.828717
1.988918
1.665036
2.887022
3.056026
4.852302
5.113415
6.932766
1.736610
5.825723
1.044274
6.503247
6.651253
6.311929
3.076223
4.812354
2.113951
1.176965
2.402927
3.715068
2.979302
4.412780
1.253700
3.687171
4.997188
2.845454
3.178981
4.102798
1.285100
4.109808
3.043479
7.099147
4.148291
4.693064
3.966883
2.492796
4.300163
2.923492
4.372419
1.735695
1.820760
1.930714
1.113545
2.828193
3.085696
2.761689
4.154863
1.857503
2.380308
4.302548
1.175496
1.868695
4.284767
2.805883
5.253158
4.269278
3.683374
0.933393
6.865006
2.432022
1.707716
3.512059
1.012411
7.213528
2.230843
1.222375
3.058291
4.198002
3.252110
6.762638
4.422336
4.049926
3.504497
2.475098
3.572336
6.491497
7.709808
2.395432
6.403070
1.313286
1.973714
1.528630
1.779258
5.077623
3.132956
5.118822
1.413830
5.913304
1.788868
3.763822
3.796903
3.429902
7.517035
3.758581
3.236505
3.629275
3.067838
1.825891
5.175758
3.718945
5.490431
6.368207
4.318404
5.905523
2.605399
2.339744
3.110596
3.945612
1.451995
2.543754
3.147054
3.296641
2.201574
3.411899
1.916826
2.186947
1.567621
1.016782
5.205248
7.155878
1.158275
5.245228
2.944528
2.657628
2.541078
3.490763
2.357203
5.531938
2.905409
2.490829
3.188684
4.579471
2.307785
1.450809
5.899270
1.491720
2.174735
2.139389
3.006963
2.965962
2.922877
6.064296
5.318113
4.800688
3.722439
5.916500
3.434463
1.222903
3.313481
7.753919
5.394870
3.959644
5.811069
1.003830
3.668756
1.237806
5.116314
3.535308
2.486861
4.984617
5.184681
4.428010
7.514643
1.479722
1.168812
1.146840
1.716021
4.640508
2.731112
2.480149
6.249028
7.925448
5.134640
6.287245
3.490763
3.393605
3.096941
7.506573
5.770139
1.868290
2.740700
3.640019
4.370767
7.270759
3.812745
4.975393
3.428660
3.162211
2.071184
1.115174
6.282520
4.377937
4.481689
6.784643
6.512005
2.288517
2.933492
7.149379
3.033690
3.463959
5.539700
3.509375
5.655573
2.866535
2.869441
7.581950
1.894465
2.826217
8.090462
4.922347
4.386896
4.311300
1.367081
2.545918
2.301625
6.031849
2.101412
3.769722
1.269082
4.481372
2.785241
6.518321
3.302065
1.083945
3.644790
3.253004
1.563658
2.330034
3.431467
1.275308
0.981098
3.804632
2.631483
3.333614
5.204928
5.315392
5.876629
3.792486
4.156915
2.809041
5.155008
3.606321
6.373883
2.035134
3.841572
3.970139
2.200568
3.520498
1.149129
0.973532
3.894903
1.778768
3.259583
3.655220
7.904040
2.124777
2.867891
4.196653
3.436319
4.831049
2.513394
1.399837
1.527590
1.311440
4.468066
5.263967
4.442728
3.739387
1.435297
3.146262
1.407715
3.715130
2.735703
1.251595
2.463509
1.929804
2.680797
1.443374
3.925328
5.521299
2.652071
3.625800
4.082574
2.551362
3.680683
4.585202
4.398755
1.759179
3.079175
4.746941
5.563092
4.691069
2.100205
2.919430
3.208725
4.595624
1.815446
1.590905
3.618051
6.822159
4.557975
2.813899
3.663146
8.230329
2.499221
2.099584
1.931501
4.471792
2.150973
4.493833
1.151548
2.694817
4.667282
5.443428
2.401667
2.621593
2.967970
1.728068
4.102051
3.561846
5.325116
3.244318
2.244971
1.965079
7.309092
2.736568
1.126714
1.416647
3.227521
3.561417
4.518679
1.707648
6.421035
2.872697
5.881916
5.820557
3.092629
2.924299
3.260186
4.226477
5.398978
3.636835
5.089654
4.724308
3.481366
2.997066
4.610964
3.653966
1.910374
4.806717
3.458830
1.548288
2.412537
2.063045
1.074640
1.625428
7.314565
0.920083
1.357406
8.050674
1.769686
3.059043
2.435967
0.853857
0.526543
0.611704
3.998512
1.924460
2.148086
1.107779
2.347857
1.227432
0.944927
0.528105
1.683135
5.624920
4.202784
4.716895
2.174802
1.347257
1.209145
1.197700
1.854922
1.174710
0.804358
1.595828
3.932309
4.517701
6.240600
0.988205
0.276148
0.669358
1.076221
1.107059
0.962760
0.947649
1.227306
0.653527
1.571738
1.199008
0.804503
1.375344
0.916728
1.077124
1.386992
1.443117
0.875668
1.167449
1.198805
1.193001
1.508963
1.134181
0.796363
0.289031
0.316509
1.028757
1.028147
0.425400
0.482397
2.582980
1.354697
1.764746
0.714735
1.189185
1.696069
1.765776
0.332705
2.545505
0.680253
2.487812
1.183267
2.769676
0.756378
1.039584
1.475817
1.093645
1.603800
2.623094
1.397734
1.148294
0.952134
1.400677
1.784515
5.002313
6.334008
5.343009
4.108373
4.080149
4.604361
3.335770
6.063846
3.487613
5.971399
4.878676
2.850983
1.983876
2.790906
1.934617
0.746732
4.056190
2.543113
1.856749
1.394040
0.727184
2.546073
1.450073
0.521146
1.070836
1.191566
1.613798
1.823539
1.331419
1.814006
1.646413
1.490176
1.445526
1.771139
1.433883
1.362573
2.557159
2.089781
1.319189
1.495768
2.394924
1.060112
1.421894
1.999468
1.118013
1.394834
2.423914
1.229224
1.287964
0.407748
1.199739
5.207382
5.740106
5.247346
5.080349
1.284059
1.420719
1.298399
1.264525
1.181639
1.699063
1.297717
1.684042
1.547379
2.096199
3.835254
1.474306
1.522873
0.693657
2.536768
2.206628
1.326566
3.200980
1.147483
1.337551
2.470458
3.990258
3.555349
2.526109
3.040764
2.825241
2.412737
0.614268
2.675358
2.333880
3.589007
1.390543
0.769884
0.834896
0.471720
1.400427
1.413248
2.190151
2.433442
2.188569
1.609215
1.321393
1.463332
1.116954
1.896413
1.201089
4.544495
3.202281
3.329978
4.036360
3.719074
4.232010
2.325715
1.114447
2.271345
3.468137
1.664439
1.812240
2.256753
2.388496
4.850329
1.136258
1.158002
0.584982
0.178555
1.291308
1.299843
1.255452
2.532108
1.169096
5.086284
2.562741
4.215474
1.461606
1.261376
2.487821
2.427417
2.780568
1.105970
1.978468
1.672963
0.407069
0.649372
1.881602
1.417185
4.150666
1.168112
2.029565
0.883022
0.903953
0.680050
2.391974
0.784640
0.574806
0.208479
0.705987
0.383166
0.725810
1.167153
3.130228
3.635985
3.308794
0.288163
4.845435
1.037185
0.919081
1.108477
1.070223
0.963030
0.860419
2.603724
3.843632
2.243550
1.641634
1.937004
1.442668
0.788575
1.035550
1.123105
0.889742
1.391522
1.008688
2.959570
3.355844
1.561896
1.530524
0.854464
1.143357
1.602737
2.778050
2.917276
1.668452
4.764898
1.761870
0.909689
4.914727
1.040333
6.145576
6.900735
5.841216
5.196249
5.242113
5.647669
3.964369
4.587585
1.027808
0.945328
0.944457
1.108469
1.063253
1.085942
1.052756
0.766885
0.971625
1.883363
5.518217
2.287076
1.845602
2.069385
3.152291
3.110218
3.028117
3.214650
3.404448
2.127187
1.775346
3.172744
2.231803
3.284619
3.194439
4.268601
4.669623
2.052195
2.212085
3.208845
4.587090
1.795945
3.207954
2.026305
1.461005
3.025149
2.988114
3.302984
3.237980
3.848976
3.207478
3.956272
2.705911
3.175925
3.064712
2.554156
4.278748
4.022049
1.365829
3.874667
1.097996
0.565978
0.717402
0.955334
0.981577
1.393280
0.979967
1.182552
0.956430
0.519355
1.885391
1.473570
0.712517
0.882767
1.409192
0.895828
0.903757
3.946777
2.120315
1.460848
2.154190
0.810324
1.465675
1.132395
1.246698
0.653999
0.361792
2.010619
2.321808
2.552492
1.818890
1.303368
0.873739
1.114447
0.846997
0.637821
1.828564
2.039770
1.307808
1.126347
1.355748
1.434091
0.982185
3.951912
3.450475
2.833555
3.200746
2.606114
2.124017
1.647404
1.156040
0.873314
1.416083
1.115707
1.090186
0.984067
4.324820
3.323304
4.132337
5.384685
2.018513
1.315119
1.692817
1.745584
2.631299
1.911213
2.371586
1.731914
1.947521
4.318787
3.606959
3.598197
2.100194
2.280148
1.696098
1.535767
1.559011
1.705010
1.800469
2.185567
1.638490
1.357307
1.262258
1.256563
2.981510
3.712957
3.834628
2.481881
3.095693
3.562547
2.580160
2.047217
2.563708
1.303383
6.284161
5.674418
0.787927
3.122739
1.537573
1.373066
1.781651
2.063600
2.143696
0.962004
5.374938
4.664954
4.729852
4.377364
2.352650
1.271214
1.347677
1.369940
1.048298
3.803655
3.087953
2.666442
2.634280
2.094186
1.926278
2.504248
2.988831
3.132562
4.746296
0.989719
3.438733
3.161533
2.395048
1.880097
1.396597
1.066963
0.912163
0.828500
2.514315
2.097803
4.363878
1.826861
4.342603
2.936265
3.473232
0.932366
1.157611
1.188975
2.568881
1.958772
2.211347
3.514744
2.427678
2.006178
5.210301
1.203455
1.467352
0.986466
0.944076
4.499667
1.904880
1.494295
2.065852
2.315228
1.865295
1.596219
1.748984
1.254023
3.704388
4.006041
3.660311
3.361971
1.590650
2.665512
2.402549
2.911663
4.748744
3.231935
6.086058
0.906774
3.189065
4.646194
4.033124
4.079905
3.092341
2.390934
3.507340
2.255749
2.432254
5.017041
4.443439
1.028618
0.933484
0.699915
0.992435
0.839705
0.771848
3.555948
1.536219
1.469465
1.433378
3.488178
2.246209
3.728598
2.733416
2.326298
2.299479
2.477272
2.421108
1.834057
2.177913
2.455256
1.826750
1.661626
1.325273
1.185091
0.971651
1.607678
2.538809
4.152472
1.043143
0.969034
0.765434
2.388436
2.490611
1.334838
2.193018
2.825156
1.679442
2.746209
2.096529
3.057446
3.648942
2.593154
1.952458
2.928531
4.861409
5.870890
4.662102
4.110869
2.747827
2.710279
2.786652
4.264975
3.607232
2.646482
3.579885
1.653414
1.472241
2.644515
2.327348
2.394236
1.748571
2.925465
4.300358
4.795092
3.713569
1.402708
1.078132
1.564143
1.761082
1.130751
0.917237
1.150285
1.156222
2.551222
3.098204
2.542104
4.178025
3.177792
2.506373
2.870146
2.729478
3.386706
1.565531
3.661506
1.681021
1.326320
6.140569
1.699881
1.492576
2.673329
2.177417
4.933092
2.703736
2.055146
1.066179
1.924122
1.550440
2.501857
1.844858
3.913745
3.375435
2.315362
2.257780
1.759875
2.359043
3.011009
2.532156
3.158650
2.547745
1.841818
0.770998
0.881029
0.551310
1.969783
1.255383
1.322561
3.826657
3.192355
1.874694
4.343573
3.886443
6.530858
5.003304
2.871310
2.163958
1.712078
3.151775
2.879575
3.898581
2.111971
2.262126
1.953964
2.106854
4.204876
1.632294
1.005720
4.822860
4.926788
4.224604
3.596276
3.047970
2.022396
2.360896
2.181037
2.092053
2.125970
2.080601
2.268967
1.022921
0.890733
1.118490
2.202617
0.911406
3.090215
3.011411
2.428440
4.612277
3.063633
1.175431
1.143923
1.137715
0.774930
1.790813
2.211946
2.076137
1.977740
1.034817
4.446871
4.941069
4.004654
4.048964
0.860550
1.232540
0.927285
2.251452
2.504015
1.445873
1.017388
0.858244
0.945377
0.900130
2.419134
1.796342
2.416687
2.228887
1.561427
3.134619
2.258371
1.947929
1.420434
3.169964
2.516640
1.796845
2.599070
5.410218
4.845931
2.427858
3.283693
2.490587
2.101081
1.298772
2.717030
4.493525
3.497671
2.851065
2.910369
1.602332
1.720002
2.013498
1.451745
4.737475
5.031764
1.064463
1.065868
1.106424
1.041914
1.440491
1.531780
3.760024
1.246554
0.980666
2.025600
1.711107
2.323019
2.644734
2.502355
1.813059
1.759927
1.380253
3.413372
3.486637
4.140779
3.190195
2.861499
1.414508
0.511189
0.936132
0.421211
0.617086
0.381817
0.358214
0.630735
0.361968
0.982349
0.934511
0.546010
0.833408
0.432391
1.878088
1.501896
1.791326
2.086160
1.944699
1.933667
0.172504
0.989887
0.186314
0.488296
0.861400
0.519039
0.490069
0.558525
0.889506
0.903902
1.229626
1.663625
1.341355
1.934140
0.772659
0.834902
0.877439
0.443986
0.830982
0.440331
0.182517
0.224401
0.033145
1.225911
0.826654
1.773195
1.142493
0.661388
0.623480
0.807791
0.836163
2.369841
0.796948
0.206425
0.189937
0.336599
2.204497
1.152102
1.640041
0.197153
0.430523
2.421090
0.596994
0.464500
0.809484
0.905540
0.546260
0.507308
2.451759
1.201732
2.496236
0.896720
1.768786
1.031834
0.358236
0.562839
2.540318
1.873318
1.666581
1.399994
1.556800
2.039411
1.880446
2.379549
1.987975
3.024075
2.667481
3.338844
2.432216
2.673441
3.297288
2.864308
2.291032
2.381628
