# vtk DataFile Version 2.0
Unstructured Grid Example
ASCII
DATASET UNSTRUCTURED_GRID
POINTS 2044 float
1.152306 -0.076440 0.167336 
-0.058887 1.126325 0.155361 
-0.845656 -0.053312 -0.186059 
-0.072496 -0.855106 -0.183687 
-0.030563 -0.022737 0.997979 
1.159032 -0.173519 0.204898 
1.155257 -0.259949 0.230310 
1.135916 -0.344367 0.241705 
1.093911 -0.430443 0.225641 
1.031557 -0.507120 0.198024 
0.953976 -0.562834 0.147223 
0.870719 -0.617350 0.085393 
0.776872 -0.650130 0.017057 
0.665377 -0.685906 -0.053108 
0.558054 -0.714930 -0.116492 
0.456203 -0.748281 -0.167028 
0.346686 -0.777185 -0.206776 
0.236197 -0.791388 -0.236328 
0.132482 -0.804449 -0.242816 
0.028439 -0.826375 -0.222010 
-0.179714 -0.874703 -0.133096 
-0.284833 -0.891665 -0.069870 
-0.380688 -0.901023 -0.005686 
-0.470178 -0.895234 0.054931 
-0.566690 -0.902116 0.132758 
-0.648365 -0.878286 0.171070 
-0.718859 -0.832782 0.197299 
-0.777899 -0.788533 0.199624 
-0.824554 -0.716091 0.189159 
-0.866946 -0.640391 0.161312 
-0.890469 -0.552288 0.110932 
-0.895884 -0.457972 0.053235 
-0.888618 -0.362388 -0.010981 
-0.881240 -0.261141 -0.078615 
-0.866302 -0.155292 -0.135863 
-0.816264 0.050013 -0.221786 
-0.788194 0.151788 -0.240898 
-0.765769 0.255280 -0.235613 
-0.747977 0.354179 -0.213065 
-0.721357 0.468073 -0.181456 
-0.699557 0.579735 -0.118129 
-0.664246 0.683424 -0.057777 
-0.632959 0.792088 0.013368 
-0.589873 0.884604 0.080529 
-0.538836 0.966424 0.146255 
-0.476374 1.038604 0.203050 
-0.410370 1.087153 0.227780 
-0.327235 1.125951 0.235042 
-0.237974 1.135891 0.224039 
-0.148990 1.143907 0.201029 
0.033200 1.101330 0.114454 
0.123024 1.060657 0.057492 
0.215408 1.008331 0.001377 
0.302916 0.949571 -0.053419 
0.384839 0.876189 -0.113093 
0.467515 0.799194 -0.154207 
0.554820 0.716932 -0.179113 
0.633478 0.642013 -0.191358 
0.722543 0.551391 -0.181133 
0.796734 0.472622 -0.149573 
0.873182 0.389582 -0.109275 
0.943353 0.303547 -0.061201 
1.017163 0.211573 -0.003122 
1.081524 0.119016 0.059644 
1.123630 0.023875 0.116315 
1.116803 -0.051138 0.262431 
1.076567 -0.027973 0.349990 
1.026860 -0.017069 0.427193 
0.964421 -0.015907 0.491048 
0.903100 -0.007280 0.559205 
0.833784 -0.000889 0.620196 
0.756620 0.006938 0.673618 
0.680418 0.008331 0.727297 
0.598402 0.006438 0.770245 
0.513194 0.005641 0.816221 
0.434455 0.001393 0.865332 
0.344534 -0.002499 0.900679 
0.255747 -0.010119 0.936371 
0.163283 -0.014691 0.965254 
0.067659 -0.017591 0.983447 
-0.031959 0.072084 0.985802 
-0.028196 0.164368 0.971114 
-0.028858 0.254442 0.947852 
-0.025363 0.342881 0.917142 
-0.024942 0.428578 0.878204 
-0.022211 0.512587 0.838448 
-0.014070 0.592170 0.800860 
-0.012358 0.670561 0.751287 
-0.009444 0.750455 0.695291 
-0.006959 0.827145 0.635166 
-0.009521 0.898941 0.574064 
-0.011094 0.960311 0.501441 
-0.017388 1.015953 0.425941 
-0.025778 1.065093 0.345292 
-0.038934 1.104102 0.255769 
-0.131110 -0.024150 1.005653 
-0.230369 -0.019549 0.998685 
-0.331921 -0.018734 0.982899 
-0.430608 -0.022535 0.942202 
-0.525623 -0.014023 0.885844 
-0.609397 -0.011129 0.818216 
-0.688846 -0.011690 0.748385 
-0.753912 -0.010086 0.662467 
-0.797481 -0.013276 0.557503 
-0.836817 -0.012893 0.455393 
-0.863446 -0.011405 0.347900 
-0.886616 -0.010081 0.243653 
-0.885849 -0.016642 0.127997 
-0.879174 -0.017604 0.015976 
-0.860713 -0.031576 -0.086320 
-0.027273 -0.120130 1.000851 
-0.020960 -0.218187 0.989457 
-0.019107 -0.319234 0.972222 
-0.016298 -0.414612 0.937154 
-0.013626 -0.506482 0.896719 
-0.009151 -0.590703 0.830455 
-0.005712 -0.667777 0.754923 
-0.001189 -0.737560 0.672676 
0.000823 -0.790080 0.571966 
-0.003259 -0.835148 0.470059 
-0.002895 -0.866073 0.360515 
-0.011617 -0.885566 0.246464 
-0.030690 -0.887020 0.133932 
-0.046444 -0.884123 0.020999 
-0.056687 -0.870707 -0.084053 
0.745853 0.449241 0.337559 
0.312168 0.357880 0.775392 
0.327505 0.863623 0.324534 
0.913131 0.313951 0.268551 
0.970174 0.250361 0.230886 
1.007136 0.184973 0.250736 
1.046007 0.153058 0.187156 
0.496210 0.773031 0.170987 
0.487946 0.320022 0.693143 
0.271678 0.650229 0.619551 
0.691748 0.595123 0.110345 
0.695009 0.297281 0.561638 
0.724486 0.590019 0.007857 
0.743890 0.192085 0.598063 
0.194013 0.503995 0.763517 
0.207973 0.811771 0.532494 
0.823103 0.471976 0.075421 
0.831358 0.215183 0.503818 
0.112693 0.388202 0.860220 
0.128627 0.912074 0.470390 
0.400160 0.737115 0.415747 
0.383453 0.503312 0.650000 
0.373718 0.892065 0.069561 
0.388205 0.154974 0.839367 
0.893203 0.390263 0.061488 
0.904086 0.179984 0.436584 
0.066954 0.312461 0.905091 
0.078691 0.967159 0.433368 
0.232147 0.988458 0.111597 
0.253465 0.099857 0.919132 
0.963019 0.285646 0.041669 
0.973065 0.086577 0.423786 
0.544817 0.575311 0.443876 
0.058864 0.250076 0.929309 
0.068028 1.003677 0.381860 
0.172682 1.030147 0.122579 
0.195700 0.070102 0.943923 
1.036421 0.091991 0.322403 
1.023514 0.206053 0.081347 
1.078167 0.056170 0.245682 
0.623874 0.438077 0.512114 
0.618753 0.608212 0.256331 
0.512058 0.701228 0.308144 
0.501768 0.456710 0.604510 
0.736565 0.522726 0.188234 
0.732913 0.351871 0.469448 
0.673387 0.500000 0.361852 
0.376962 0.631223 0.560490 
0.296087 0.177999 0.873878 
0.288603 0.948680 0.155367 
0.360608 0.879227 0.198802 
0.360265 0.264848 0.799319 
0.331801 0.702490 0.526034 
0.323259 0.580286 0.642009 
0.456393 0.752064 0.293652 
0.444872 0.421968 0.665367 
0.248913 0.443556 0.764484 
0.268803 0.838835 0.442470 
0.439047 0.831316 0.121519 
0.441112 0.241896 0.757927 
0.288880 0.511863 0.709549 
0.304015 0.774946 0.482574 
0.204607 0.382682 0.820116 
0.223569 0.893285 0.412182 
0.847966 0.422227 0.203143 
0.862691 0.279574 0.399246 
0.403489 0.339695 0.735230 
0.413951 0.827383 0.244163 
0.367009 0.806913 0.367370 
0.347872 0.431584 0.721686 
0.093205 0.539708 0.795285 
0.100808 0.805526 0.611249 
0.207221 0.738628 0.602348 
0.204509 0.587683 0.715589 
0.055442 0.455062 0.844342 
0.074387 0.879831 0.556968 
0.611676 0.315867 0.617498 
0.605748 0.672483 0.116523 
0.427529 0.846423 -0.057220 
0.458251 0.076793 0.827877 
0.168862 0.938591 0.390280 
0.157985 0.329720 0.872891 
0.186900 0.997815 0.222590 
0.194196 0.170476 0.923814 
0.427538 0.665145 0.474230 
0.401969 0.561535 0.591913 
0.235817 0.277067 0.853532 
0.245455 0.934094 0.291844 
0.963289 0.196736 0.336899 
0.935401 0.317621 0.139098 
0.150014 0.455105 0.808751 
0.168935 0.859755 0.507282 
0.355096 0.910923 -0.024239 
0.387538 0.058055 0.872592 
0.296659 0.954112 0.042660 
0.322315 0.081000 0.892327 
0.036342 0.387132 0.882415 
0.052022 0.925722 0.511452 
0.082792 1.037391 0.296669 
0.082949 0.174939 0.944900 
0.133894 0.255230 0.911659 
0.139272 0.985676 0.338599 
0.592700 0.504343 0.485658 
0.587432 0.597121 0.341256 
0.527812 0.633569 0.358383 
0.527937 0.512286 0.531396 
0.708563 0.429361 0.417836 
0.718516 0.521271 0.276818 
0.617952 0.537411 0.395224 
0.510576 0.769173 0.063983 
0.522536 0.235402 0.723571 
0.794435 0.483750 0.162753 
0.789948 0.313953 0.438429 
0.647118 0.564109 0.301019 
0.651871 0.468452 0.447905 
0.759145 0.385473 0.402101 
0.681539 0.397586 0.503205 
0.665336 0.571500 0.210822 
0.467882 0.688226 0.378767 
0.460772 0.507843 0.589064 
0.822783 0.375065 0.326440 
0.787969 0.471976 0.249350 
0.914367 0.241617 0.368234 
1.001210 0.228248 0.156859 
0.545046 0.712738 0.208238 
0.540750 0.379129 0.622121 
0.620960 0.381434 0.564615 
0.608983 0.641670 0.185436 
0.489119 0.631419 0.431749 
0.459913 0.584485 0.511671 
0.170015 0.662687 0.675841 
0.573988 0.655820 0.277745 
0.570651 0.452556 0.556313 
0.086606 0.625436 0.737298 
0.089389 0.709549 0.679466 
0.646093 0.651617 0.032469 
0.653786 0.233939 0.643608 
1.109261 0.022835 0.186169 
0.495815 0.156517 0.776023 
0.476485 0.802955 -0.001745 
0.716061 0.093787 0.662265 
0.684071 0.598016 -0.115079 
0.764879 0.269967 0.513993 
0.761073 0.539391 0.098987 
0.762879 0.530915 -0.054958 
0.794593 0.103492 0.604674 
0.108664 0.073165 0.963263 
0.091433 1.066814 0.181695 
0.925677 0.071483 0.490857 
0.905608 0.368630 -0.017008 
0.839296 0.441165 -0.044329 
0.866677 0.095800 0.537314 
0.888238 0.390104 0.148962 
0.574291 0.274741 0.671805 
0.564984 0.712880 0.077749 
0.011287 1.097955 0.191561 
0.030231 0.039966 0.982367 
0.031288 0.105372 0.968292 
0.025813 1.078748 0.255253 
0.604187 0.677137 -0.112123 
0.632472 0.084919 0.720258 
0.518369 0.762278 -0.097684 
0.549748 0.081140 0.775854 
0.666917 0.630258 -0.050056 
0.674041 0.149669 0.660411 
0.571799 0.720440 -0.019964 
0.589940 0.175816 0.718667 
0.763834 0.536874 0.031975 
-0.501624 0.411120 0.792471 
-0.397585 0.916692 0.529973 
-0.807873 0.358634 0.160042 
-0.379810 0.274233 0.899824 
-0.296736 0.240618 0.944451 
-0.258485 0.174360 0.968824 
-0.197378 0.105618 0.983273 
-0.345927 0.796213 0.668890 
-0.791924 0.291956 0.386213 
-0.669993 0.684290 0.281046 
-0.319728 0.585793 0.787833 
-0.679788 0.250994 0.665882 
-0.212590 0.578327 0.816828 
-0.694989 0.158471 0.687314 
-0.546991 0.891746 0.357320 
-0.759276 0.527100 0.090603 
-0.243933 0.466726 0.865353 
-0.557079 0.182713 0.826447 
-0.438105 1.007507 0.352015 
-0.781104 0.390231 -0.054112 
-0.745916 0.496527 0.323264 
-0.540432 0.760143 0.505421 
-0.181166 0.925533 0.581366 
-0.854520 0.132967 0.254186 
-0.196574 0.388999 0.902957 
-0.476361 0.129870 0.894205 
-0.369919 1.066872 0.323181 
-0.786240 0.317174 -0.128338 
-0.135318 1.032534 0.463586 
-0.869292 0.088529 0.086168 
-0.402340 0.064568 0.948118 
-0.122529 0.312750 0.939744 
-0.612364 0.548657 0.573576 
-0.310754 1.095683 0.318521 
-0.793589 0.248750 -0.149855 
-0.110103 1.060253 0.406213 
-0.867874 0.062982 0.023614 
-0.277066 0.082723 0.981012 
-0.138855 0.187854 0.977131 
-0.191965 0.037205 0.994771 
-0.464353 0.586896 0.711151 
-0.667411 0.387333 0.609403 
-0.492125 0.697329 0.615209 
-0.736528 0.424689 0.451323 
-0.602483 0.300037 0.732013 
-0.388754 0.501283 0.813524 
-0.544544 0.455134 0.715258 
-0.660384 0.645764 0.398481 
-0.206956 0.987996 0.514398 
-0.854814 0.161958 0.130061 
-0.301460 0.922785 0.573510 
[...]
POINT_DATA 2044
SCALARS u float 1
LOOKUP_TABLE default
6.921934
6.049074
7.174612
7.098606
1.105577
7.912166
8.582330
8.856358
8.304585
7.267568
5.554847
3.793157
2.656960
3.090057
4.776188
6.215241
7.421432
8.508332
8.884553
8.330862
5.716530
4.187683
3.085193
3.107084
4.772251
5.801334
6.456839
6.576548
6.155713
5.381227
3.986744
2.792850
2.896391
4.144775
5.675619
8.375107
9.026372
8.851931
8.050089
7.022924
5.179578
3.841850
3.291537
4.191921
5.787965
7.434578
8.161883
8.458362
7.994566
7.396370
4.898564
3.535148
2.632344
2.880267
4.130874
5.230882
5.908249
6.234616
5.956911
5.058126
3.964424
2.953826
2.873785
4.046416
5.462532
6.109542
5.340156
4.482795
3.384789
2.626345
1.874382
1.248368
0.999500
1.062678
1.315444
1.174344
1.296079
1.201410
1.110721
1.072283
1.223438
1.240626
1.359412
1.381719
1.440206
1.416744
1.521606
1.699906
1.901934
2.319039
3.028720
3.614483
4.317034
5.047614
5.669308
1.225482
1.278879
1.522166
1.624128
1.627281
1.638677
1.764854
1.897204
2.370025
2.931409
3.634086
4.181849
5.157540
5.990038
6.675975
1.030771
0.938240
1.098515
1.107896
1.172119
1.052618
1.112808
1.332642
1.875853
2.482378
3.247346
4.114913
5.042966
5.926008
6.599911
3.565217
2.704673
1.467263
1.509730
1.202862
1.951724
2.948307
4.421995
3.011321
1.934223
5.275128
2.125443
5.417090
0.899202
1.885481
0.222729
4.073574
0.495373
1.554888
1.592208
3.000634
3.111404
2.847137
1.853181
2.938112
0.647273
1.442690
2.774456
1.796168
1.338224
2.297206
2.445657
4.095948
1.389014
3.301974
2.534454
1.229872
3.339892
2.528722
4.271218
3.430496
5.079829
4.354760
3.365522
4.625093
2.511742
4.155837
2.875426
1.794167
1.584806
2.315003
2.487486
2.306494
2.500604
3.964042
3.193139
2.421143
0.735188
3.775597
2.702643
2.417172
1.555712
2.114485
0.366997
3.153163
0.914177
2.947506
3.044876
2.244586
2.816864
1.128580
1.149700
0.719863
1.513132
1.369083
2.004164
2.662748
5.574754
4.358845
1.572603
1.301219
1.616157
1.813228
1.328452
3.396524
3.233875
2.115882
0.734868
1.267184
1.968752
1.775455
0.666637
3.112710
1.399726
2.219083
1.483175
1.395117
2.670281
3.494161
1.340385
1.409514
2.158419
3.755495
4.653258
4.625494
3.738055
3.375826
4.279512
4.312182
5.062758
2.379728
4.128305
1.851192
4.801126
3.668351
2.798408
2.827652
5.199007
4.070949
3.506978
2.449214
3.715899
0.553516
1.800709
4.898771
3.280447
3.081510
5.479268
4.126067
3.857751
1.146240
4.840714
3.421192
1.175106
0.995227
5.751447
1.757869
5.165847
1.950865
4.866719
0.814480
6.368542
1.505817
4.686678
5.206620
0.541958
1.196506
3.765649
1.931939
3.194918
4.354299
1.028909
2.719367
2.456916
5.637927
5.009573
1.139640
1.276922
4.600689
6.032038
1.248904
5.559839
1.417007
5.921892
1.382846
5.739726
1.659988
4.874152
2.234628
5.799585
5.436132
1.984609
1.764846
1.620718
1.346105
4.400397
3.943773
0.322669
2.445159
2.453264
2.234788
2.454706
4.788706
3.862439
2.135046
2.072903
7.033195
6.527971
2.412033
3.036880
4.737060
5.068820
1.871206
1.825409
7.769961
7.723694
5.770108
6.224863
1.760026
1.510397
1.336180
7.928767
8.333155
5.905379
6.581971
1.542936
1.403196
1.249534
2.337173
2.057794
2.883030
2.378503
2.224087
2.495045
1.860210
0.656938
5.715419
6.146129
5.503692
5.489556
2.140855
1.351062
3.857920
3.444006
5.366046
4.779396
4.658607
4.642993
3.132227
4.047483
5.785392
6.507790
2.115216
2.035845
4.744045
5.218509
4.306617
4.637158
3.993593
4.780377
2.069599
2.782175
6.561231
6.012022
2.648140
2.883641
3.460683
3.866093
7.039122
6.637609
6.892037
7.161298
0.796210
1.918338
6.637884
6.611429
1.757631
5.421042
6.001947
3.674350
4.496011
4.686065
5.309049
7.203966
7.550563
7.657449
8.236167
7.676637
7.386990
1.985375
1.667426
1.577152
2.117435
2.266497
2.002355
1.694088
3.596259
3.743382
2.242925
2.279031
1.867200
1.967992
2.363731
2.427669
2.284223
1.877068
2.537276
1.790036
2.092240
2.192574
1.617365
3.364817
2.898153
2.927879
2.518924
1.099046
1.168935
1.390646
2.070636
2.587762
2.333444
2.627801
2.710140
2.659601
3.900662
3.590352
2.131097
2.109858
2.288174
2.311446
2.138518
1.985810
6.528803
7.335431
1.743853
1.632068
1.747435
1.807326
3.123029
3.204482
7.619039
6.576295
8.143388
7.356492
2.020687
2.352026
2.454312
2.909312
3.182580
1.884948
2.430288
2.513904
3.173449
3.049746
1.258353
1.213583
2.882984
1.941196
2.526539
2.432969
2.054159
1.650789
1.568381
2.035170
6.057529
2.279669
2.556448
1.628215
1.486158
4.503718
4.944884
2.114772
1.902782
2.795825
3.283268
4.491622
4.437961
1.537649
1.311112
1.974263
1.646329
1.978928
2.351369
3.358147
3.130153
1.212442
1.473573
4.595156
2.248447
2.426085
4.397100
4.172135
1.431517
1.595053
3.286760
3.379273
3.671122
3.724075
2.591965
2.692000
3.313653
5.242163
1.607163
1.590885
0.566836
0.677615
5.333800
5.382871
3.087126
3.581283
3.490291
4.174803
0.223289
0.653575
4.929386
4.601898
2.983470
2.493830
2.305633
2.710725
2.284884
1.730463
3.923454
3.093042
5.905429
5.330036
5.908938
5.705707
4.017391
4.707801
2.334381
1.851523
2.255562
2.087483
1.696336
2.012166
2.608667
2.497111
4.780963
4.922753
1.111751
0.773931
1.737684
2.200677
4.474603
3.771599
3.038614
2.971178
3.120252
2.956277
3.467428
3.056702
3.217163
3.286626
1.755000
1.790793
3.934925
3.995638
4.198956
4.245876
3.172068
2.998591
3.732004
0.373283
0.826005
2.460567
2.482166
3.436587
3.438561
2.680941
3.100741
3.001922
4.489662
4.331997
2.628211
2.802692
2.563237
2.598016
2.847370
2.912489
2.256530
4.626375
4.742854
6.380482
3.619326
3.514381
6.545308
6.260946
1.683915
1.286164
0.589686
0.874137
1.274483
0.874034
2.332832
2.049432
1.309204
1.390813
4.952836
4.936081
1.288436
1.499613
1.384042
1.202365
1.599835
1.280667
5.839711
5.964666
4.786396
4.728901
2.212152
1.237917
0.946005
1.297936
1.649079
0.948146
0.964207
0.901859
0.620449
0.568471
1.279461
1.047820
1.100031
1.142826
3.574438
5.323119
1.391301
5.794766
6.561833
6.937068
7.192881
7.208763
3.207580
1.473607
2.415009
1.939404
2.983872
2.922159
2.755861
4.031432
1.593217
5.062030
4.286750
5.090615
1.161484
1.470768
3.469646
6.122431
1.340199
4.712148
6.522689
5.500675
1.034473
8.157809
1.202361
7.800620
4.792914
1.627316
6.124638
1.063375
8.376145
1.171174
7.889150
6.146416
1.216858
2.374115
2.030786
1.728348
3.718273
3.167018
2.836814
2.023196
7.161859
1.299717
5.581505
1.451254
2.863207
1.917345
3.164131
1.583285
4.632718
1.322157
4.453677
1.384391
1.564014
3.656131
1.232569
5.315059
5.536877
4.807536
1.417587
4.380357
1.516862
4.270685
1.323864
3.234031
2.074005
3.161624
4.004810
1.140371
2.263690
0.364411
5.485585
1.334904
5.885315
1.201135
7.630754
1.210320
1.753736
2.510331
1.339553
6.511689
5.788749
7.023639
1.339083
4.572402
6.871592
1.267372
7.665601
1.253443
1.127305
4.414207
7.005654
0.972023
1.134520
6.735217
1.309983
2.024004
1.703372
1.713059
2.999983
3.192104
1.957695
3.120621
1.540469
4.229970
4.446690
2.533778
1.962740
3.837295
1.920692
2.926417
2.264792
1.563697
4.686497
3.936590
1.761039
1.841069
0.707461
2.248599
6.361895
1.712242
1.867976
2.441147
1.840935
1.152440
1.705167
2.384810
2.484393
0.415982
1.332864
4.119233
2.461244
1.880260
3.665387
3.574689
3.113655
4.180353
7.973316
0.991877
3.855775
7.297978
6.317305
3.179074
1.930046
1.681613
1.023573
7.493700
0.919430
7.076421
5.109652
1.762827
1.274038
3.584800
1.286368
2.217480
1.374114
2.004725
1.629414
2.012440
8.152886
6.064263
1.046651
2.086962
2.814218
3.178243
1.654297
3.043133
2.256871
2.908325
3.110222
4.558140
4.230948
1.088847
1.640322
1.473970
3.636153
3.635691
1.756672
2.739690
5.455612
4.283834
3.091457
1.278498
2.944594
5.751709
6.050815
3.679307
5.196399
3.349109
1.633713
2.632312
3.123936
4.061787
3.810061
5.380087
2.949264
4.867716
1.074751
2.464369
2.389793
1.620243
2.828717
1.988918
1.665036
2.887022
3.056026
4.852302
5.113415
6.932766
1.736610
5.825723
1.044274
6.503247
6.651253
6.311929
3.076223
4.812354
2.113951
1.176965
2.402927
3.715068
2.979302
4.412780
1.253700
3.687171
4.997188
2.845454
3.178981
4.102798
1.285100
4.109808
3.043479
7.099147
4.148291
4.693064
3.966883
2.492796
4.300163
2.923492
4.372419
1.735695
1.820760
1.930714
1.113545
2.828193
3.085696
2.761689
4.154863
1.857503
2.380308
4.302548
1.175496
1.868695
4.284767
2.805883
5.253158
4.269278
3.683374
0.933393
6.865006
2.432022
1.707716
3.512059
1.012411
7.213528
2.230843
1.222375
3.058291
4.198002
3.252110
6.762638
4.422336
4.049926
3.504497
2.475098
3.572336
6.491497
7.709808
2.395432
6.403070
1.313286
1.973714
1.528630
1.779258
5.077623
3.132956
5.118822
1.413830
5.913304
1.788868
3.763822
3.796903
3.429902
7.517035
3.758581
3.236505
3.629275
3.067838
1.825891
5.175758
3.718945
5.490431
6.368207
4.318404
5.905523
2.605399
2.339744
3.110596
3.945612
1.451995
2.543754
3.147054
3.296641
2.201574
3.411899
1.916826
2.186947
1.567621
1.016782
5.205248
7.155878
1.158275
5.245228
2.944528
2.657628
2.541078
3.490763
2.357203
5.531938
2.905409
2.490829
3.188684
4.579471
2.307785
1.450809
5.899270
1.491720
2.174735
2.139389
3.006963
2.965962
2.922877
6.064296
5.318113
4.800688
3.722439
5.916500
3.434463
1.222903
3.313481
7.753919
5.394870
3.959644
5.811069
1.003830
3.668756
1.237806
5.116314
3.535308
2.486861
4.984617
5.184681
4.428010
7.514643
1.479722
1.168812
1.146840
1.716021
4.640508
2.731112
2.480149
6.249028
7.925448
5.134640
6.287245
3.490763
3.393605
3.096941
7.506573
5.770139
1.868290
2.740700
3.640019
4.370767
7.270759
3.812745
4.975393
3.428660
3.162211
2.071184
1.115174
6.282520
4.377937
4.481689
6.784643
6.512005
2.288517
2.933492
7.149379
3.033690
3.463959
5.539700
3.509375
5.655573
2.866535
2.869441
7.581950
1.894465
2.826217
8.090462
4.922347
4.386896
4.311300
1.367081
2.545918
2.301625
6.031849
2.101412
3.769722
1.269082
4.481372
2.785241
6.518321
3.302065
1.083945
3.644790
3.253004
1.563658
2.330034
3.431467
1.275308
0.981098
3.804632
2.631483
3.333614
5.204928
5.315392
5.876629
3.792486
4.156915
2.809041
5.155008
3.606321
6.373883
2.035134
3.841572
3.970139
2.200568
3.520498
1.149129
0.973532
3.894903
1.778768
3.259583
3.655220
7.904040
2.124777
2.867891
4.196653
3.436319
4.831049
2.513394
1.399837
1.527590
1.311440
4.468066
5.263967
4.442728
3.739387
1.435297
3.146262
1.407715
3.715130
2.735703
1.251595
2.463509
1.929804
2.680797
1.443374
3.925328
5.521299
2.652071
3.625800
4.082574
2.551362
3.680683
4.585202
4.398755
1.759179
3.079175
4.746941
5.563092
4.691069
2.100205
2.919430
3.208725
4.595624
1.815446
1.590905
3.618051
6.822159
4.557975
2.813899
3.663146
8.230329
2.499221
2.099584
1.931501
4.471792
2.150973
4.493833
1.151548
2.694817
4.667282
5.443428
2.401667
2.621593
2.967970
1.728068
4.102051
3.561846
5.325116
3.244318
2.244971
1.965079
7.309092
2.736568
1.126714
1.416647
3.227521
3.561417
4.518679
1.707648
6.421035
2.872697
5.881916
5.820557
3.092629
2.924299
3.260186
4.226477
5.398978
3.636835
5.089654
4.724308
3.481366
2.997066
4.610964
3.653966
1.910374
4.806717
3.458830
1.548288
2.412537
2.063045
1.074640
1.625428
7.314565
0.920083
1.357406
8.050674
1.769686
3.059043
2.435967
0.853857
0.526543
0.611704
3.998512
1.924460
2.148086
1.107779
2.347857
1.227432
0.944927
0.528105
1.683135
5.624920
4.202784
4.716895
2.174802
1.347257
1.209145
1.197700
1.854922
1.174710
0.804358
1.595828
3.932309
4.517701
6.240600
0.988205
0.276148
0.669358
1.076221
1.107059
0.962760
0.947649
1.227306
0.653527
1.571738
1.199008
0.804503
1.375344
0.916728
1.077124
1.386992
1.443117
0.875668
1.167449
1.198805
1.193001
1.508963
1.134181
0.796363
0.289031
0.316509
1.028757
1.028147
0.425400
0.482397
2.582980
1.354697
1.764746
0.714735
1.189185
1.696069
1.765776
0.332705
2.545505
0.680253
2.487812
1.183267
2.769676
0.756378
1.039584
1.475817
1.093645
1.603800
2.623094
1.397734
1.148294
0.952134
1.400677
1.784515
5.002313
6.334008
5.343009
4.108373
4.080149
4.604361
3.335770
6.063846
3.487613
5.971399
4.878676
2.850983
1.983876
2.790906
1.934617
0.746732
4.056190
2.543113
1.856749
1.394040
0.727184
2.546073
1.450073
0.521146
1.070836
1.191566
1.613798
1.823539
1.331419
1.814006
1.646413
1.490176
1.445526
1.771139
1.433883
1.362573
2.557159
2.089781
1.319189
1.495768
2.394924
1.060112
1.421894
1.999468
1.118013
1.394834
2.423914
1.229224
1.287964
0.407748
1.199739
5.207382
5.740106
5.247346
5.080349
1.284059
1.420719
1.298399
1.264525
1.181639
1.699063
1.297717
1.684042
1.547379
2.096199
3.835254
1.474306
1.522873
0.693657
2.536768
2.206628
1.326566
3.200980
1.147483
1.337551
2.470458
3.990258
3.555349
2.526109
3.040764
2.825241
2.412737
0.614268
2.675358
2.333880
3.589007
1.390543
0.769884
0.834896
0.471720
1.400427
1.413248
2.190151
2.433442
2.188569
1.609215
1.321393
1.463332
1.116954
1.896413
1.201089
4.544495
3.202281
3.329978
4.036360
3.719074
4.232010
2.325715
1.114447
2.271345
3.468137
1.664439
1.812240
2.256753
2.388496
4.850329
1.136258
1.158002
0.584982
0.178555
1.291308
1.299843
1.255452
2.532108
1.169096
5.086284
2.562741
4.215474
1.461606
1.261376
2.487821
2.427417
2.780568
1.105970
1.978468
1.672963
0.407069
0.649372
1.881602
1.417185
4.150666
1.168112
2.029565
0.883022
0.903953
0.680050
2.391974
0.784640
0.574806
0.208479
0.705987
0.383166
0.725810
1.167153
3.130228
3.635985
3.308794
0.288163
4.845435
1.037185
0.919081
1.108477
1.070223
0.963030
0.860419
2.603724
3.843632
2.243550
1.641634
1.937004
1.442668
0.788575
1.035550
1.123105
0.889742
1.391522
1.008688
2.959570
3.355844
1.561896
1.530524
0.854464
1.143357
1.602737
2.778050
2.917276
1.668452
4.764898
1.761870
0.909689
4.914727
1.040333
6.145576
6.900735
5.841216
5.196249
5.242113
5.647669
3.964369
4.587585
1.027808
0.945328
0.944457
1.108469
1.063253
1.085942
1.052756
0.766885
0.971625
1.883363
5.518217
2.287076
1.845602
2.069385
3.152291
3.110218
3.028117
3.214650
3.404448
2.127187
1.775346
3.172744
2.231803
3.284619
3.194439
4.268601
4.669623
2.052195
2.212085
3.208845
4.587090
1.795945
3.207954
2.026305
1.461005
3.025149
2.988114
3.302984
3.237980
3.848976
3.207478
3.956272
2.705911
3.175925
3.064712
2.554156
4.278748
4.022049
1.365829
3.874667
1.097996
0.565978
0.717402
0.955334
0.981577
1.393280
0.979967
1.182552
0.956430
0.519355
1.885391
1.473570
0.712517
0.882767
1.409192
0.895828
0.903757
3.946777
2.120315
1.460848
2.154190
0.810324
1.465675
1.132395
1.246698
0.653999
0.361792
2.010619
2.321808
2.552492
1.818890
1.303368
0.873739
1.114447
0.846997
0.637821
1.828564
2.039770
1.307808
1.126347
1.355748
1.434091
0.982185
3.951912
3.450475
2.833555
3.200746
2.606114
2.124017
1.647404
1.156040
0.873314
1.416083
1.115707
1.090186
0.984067
4.324820
3.323304
4.132337
5.384685
2.018513
1.315119
1.692817
1.745584
2.631299
1.911213
2.371586
1.731914
1.947521
4.318787
3.606959
3.598197
2.100194
2.280148
1.696098
1.535767
1.559011
1.705010
1.800469
2.185567
1.638490
1.357307
1.262258
1.256563
2.981510
3.712957
3.834628
2.481881
3.095693
3.562547
2.580160
2.047217
2.563708
1.303383
6.284161
5.674418
0.787927
3.122739
1.537573
1.373066
1.781651
2.063600
2.143696
0.962004
5.374938
4.664954
4.729852
4.377364
2.352650
1.271214
1.347677
1.369940
1.048298
3.803655
3.087953
2.666442
2.634280
2.094186
1.926278
2.504248
2.988831
3.132562
4.746296
0.989719
3.438733
3.161533
2.395048
1.880097
1.396597
1.066963
0.912163
0.828500
2.514315
2.097803
4.363878
1.826861
4.342603
2.936265
3.473232
0.932366
1.157611
1.188975
2.568881
1.958772
2.211347
3.514744
2.427678
2.006178
5.210301
1.203455
1.467352
0.986466
0.944076
4.499667
1.904880
1.494295
2.065852
2.315228
1.865295
1.596219
1.748984
1.254023
3.704388
4.006041
3.660311
3.361971
1.590650
2.665512
2.402549
2.911663
4.748744
3.231935
6.086058
0.906774
3.189065
4.646194
4.033124
4.079905
3.092341
2.390934
3.507340
2.255749
2.432254
5.017041
4.443439
1.028618
0.933484
0.699915
0.992435
0.839705
0.771848
3.555948
1.536219
1.469465
1.433378
3.488178
2.246209
3.728598
2.733416
2.326298
2.299479
2.477272
2.421108
1.834057
2.177913
2.455256
1.826750
1.661626
1.325273
1.185091
0.971651
1.607678
2.538809
4.152472
1.043143
0.969034
0.765434
2.388436
2.490611
1.334838
2.193018
2.825156
1.679442
2.746209
2.096529
3.057446
3.648942
2.593154
1.952458
2.928531
4.861409
5.870890
4.662102
4.110869
2.747827
2.710279
2.786652
4.264975
3.607232
2.646482
3.579885
1.653414
1.472241
2.644515
2.327348
2.394236
1.748571
2.925465
4.300358
4.795092
3.713569
1.402708
1.078132
1.564143
1.761082
1.130751
0.917237
1.150285
1.156222
2.551222
3.098204
2.542104
4.178025
3.177792
2.506373
2.870146
2.729478
3.386706
1.565531
3.661506
1.681021
1.326320
6.140569
1.699881
1.492576
2.673329
2.177417
4.933092
2.703736
2.055146
1.066179
1.924122
1.550440
2.501857
1.844858
3.913745
3.375435
2.315362
2.257780
1.759875
2.359043
3.011009
2.532156
3.158650
2.547745
1.841818
0.770998
0.881029
0.551310
1.969783
1.255383
1.322561
3.826657
3.192355
1.874694
4.343573
3.886443
6.530858
5.003304
2.871310
2.163958
1.712078
3.151775
2.879575
3.898581
2.111971
2.262126
1.953964
2.106854
4.204876
1.632294
1.005720
4.822860
4.926788
4.224604
3.596276
3.047970
2.022396
2.360896
2.181037
2.092053
2.125970
2.080601
2.268967
1.022921
0.890733
1.118490
2.202617
0.911406
3.090215
3.011411
2.428440
4.612277
3.063633
1.175431
1.143923
1.137715
0.774930
1.790813
2.211946
2.076137
1.977740
1.034817
4.446871
4.941069
4.004654
4.048964
0.860550
1.232540
0.927285
2.251452
2.504015
1.445873
1.017388
0.858244
0.945377
0.900130
2.419134
1.796342
2.416687
2.228887
1.561427
3.134619
2.258371
1.947929
1.420434
3.169964
2.516640
1.796845
2.599070
5.410218
4.845931
2.427858
3.283693
2.490587
2.101081
1.298772
2.717030
4.493525
3.497671
2.851065
2.910369
1.602332
1.720002
2.013498
1.451745
4.737475
5.031764
1.064463
1.065868
1.106424
1.041914
1.440491
1.531780
3.760024
1.246554
0.980666
2.025600
1.711107
2.323019
2.644734
2.502355
1.813059
1.759927
1.380253
3.413372
3.486637
4.140779
3.190195
2.861499
1.414508
0.511189
0.936132
0.421211
0.617086
0.381817
0.358214
0.630735
0.361968
0.982349
0.934511
0.546010
0.833408
0.432391
1.878088
1.501896
1.791326
2.086160
1.944699
1.933667
0.172504
0.989887
0.186314
0.488296
0.861400
0.519039
0.490069
0.558525
0.889506
0.903902
1.229626
1.663625
1.341355
1.934140
0.772659
0.834902
0.877439
0.443986
0.830982
0.440331
0.182517
0.224401
0.033145
1.225911
0.826654
1.773195
1.142493
0.661388
0.623480
0.807791
0.836163
2.369841
0.796948
0.206425
0.189937
0.336599
2.204497
1.152102
1.640041
0.197153
0.430523
2.421090
0.596994
0.464500
0.809484
0.905540
0.546260
0.507308
2.451759
1.201732
2.496236
0.896720
1.768786
1.031834
0.358236
0.562839
2.540318
1.873318
1.666581
1.399994
1.556800
2.039411
1.880446
2.379549
1.987975
3.024075
2.667481
3.338844
2.432216
2.673441
3.297288
2.864308
2.291032
2.381628
