# vtk DataFile Version 2.0
Unstructured Grid Example
ASCII
DATASET UNSTRUCTURED_GRID
POINTS 2044 float
0.808861 0.095929 -0.210001 
0.073902 0.841466 -0.194973 
-1.193697 0.066905 0.233498 
0.090979 -1.181837 0.230520 
0.038356 0.028535 1.002536 
0.789562 -0.003265 -0.257140 
0.761830 -0.113695 -0.289031 
0.732332 -0.222413 -0.303332 
0.710495 -0.322747 -0.283172 
0.694134 -0.426566 -0.248514 
0.677728 -0.546455 -0.184759 
0.650390 -0.655782 -0.107165 
0.619554 -0.778610 -0.021406 
0.595510 -0.882324 0.066649 
0.552453 -0.977723 0.146194 
0.490464 -1.049635 0.209615 
0.427858 -1.107976 0.259496 
0.358163 -1.164703 0.296583 
0.273662 -1.202082 0.304726 
0.185336 -1.207035 0.278615 
0.004510 -1.146385 0.167031 
-0.082467 -1.092628 0.087684 
-0.176831 -1.027115 0.007136 
-0.272881 -0.959829 -0.068936 
-0.351807 -0.856577 -0.166607 
-0.439115 -0.772717 -0.214687 
-0.528391 -0.698000 -0.247603 
-0.618265 -0.604920 -0.250521 
-0.708325 -0.531866 -0.237388 
-0.786948 -0.449123 -0.202441 
-0.871194 -0.369881 -0.139216 
-0.959013 -0.288199 -0.066809 
-1.042683 -0.199798 0.013781 
-1.105711 -0.112199 0.098659 
-1.156928 -0.026139 0.170503 
-1.219724 0.158261 0.278334 
-1.222481 0.249434 0.302319 
-1.196854 0.334214 0.295686 
-1.144631 0.418455 0.267389 
-1.083424 0.475568 0.227722 
-0.997015 0.525244 0.148248 
-0.909506 0.572861 0.072508 
-0.800160 0.600459 -0.016776 
-0.690265 0.632965 -0.101062 
-0.576571 0.662107 -0.183545 
-0.465151 0.685289 -0.254821 
-0.347938 0.718977 -0.285855 
-0.243913 0.744838 -0.294969 
-0.141273 0.786134 -0.281161 
-0.034047 0.808543 -0.252284 
0.179360 0.861977 -0.143636 
0.285531 0.880549 -0.072150 
0.384252 0.892446 -0.001728 
0.482789 0.891638 0.067038 
0.580024 0.889115 0.141928 
0.666076 0.871974 0.193525 
0.734255 0.843387 0.224780 
0.799509 0.788797 0.240147 
0.836346 0.738559 0.227315 
0.875061 0.659668 0.187709 
0.892889 0.574072 0.137136 
0.899441 0.481998 0.076805 
0.881363 0.389066 0.003918 
0.854362 0.290562 -0.074851 
0.833991 0.191062 -0.145971 
0.842558 0.064176 -0.108317 
0.860583 0.035105 0.000696 
0.869193 0.021421 0.118469 
0.873002 0.019962 0.246689 
0.855342 0.009137 0.361200 
0.828565 0.001115 0.474467 
0.793580 -0.008707 0.585168 
0.740601 -0.010455 0.681769 
0.679561 -0.008080 0.776481 
0.608751 -0.007079 0.850605 
0.517757 -0.001749 0.902740 
0.430560 0.003136 0.952995 
0.333629 0.012699 0.982755 
0.235007 0.018437 1.000277 
0.136116 0.022076 1.009915 
0.040108 0.130563 1.006959 
0.035385 0.233646 0.992923 
0.036216 0.335266 0.968346 
0.031829 0.432634 0.932335 
0.031301 0.525133 0.886587 
0.027874 0.609513 0.822713 
0.017657 0.687383 0.738060 
0.015509 0.752971 0.651662 
0.011852 0.801317 0.557968 
0.008733 0.836897 0.455681 
0.011948 0.860562 0.342553 
0.013923 0.878159 0.233647 
0.021821 0.882881 0.120041 
0.032350 0.874982 0.006593 
0.048860 0.858497 -0.099956 
-0.056487 0.030308 0.982047 
-0.150817 0.024533 0.958322 
-0.238032 0.023511 0.924364 
-0.322539 0.028281 0.900886 
-0.403344 0.017599 0.876999 
-0.488019 0.013967 0.848103 
-0.566058 0.014671 0.803915 
-0.648368 0.012657 0.763128 
-0.742301 0.016661 0.730888 
-0.824759 0.016180 0.681290 
-0.905107 0.014312 0.626380 
-0.970644 0.012652 0.557162 
-1.046158 0.020885 0.493950 
-1.108304 0.022092 0.419873 
-1.163942 0.039627 0.329354 
0.034227 -0.070266 0.988074 
0.026305 -0.166104 0.969902 
0.023979 -0.253955 0.937762 
0.020454 -0.342614 0.907221 
0.017101 -0.427366 0.863350 
0.011484 -0.511479 0.832743 
0.007168 -0.592498 0.795710 
0.001492 -0.668889 0.750316 
-0.001033 -0.751589 0.712738 
0.004090 -0.826854 0.662883 
0.003633 -0.901810 0.610550 
0.014579 -0.971962 0.553634 
0.038514 -1.044688 0.486502 
0.058286 -1.102093 0.413569 
0.071140 -1.151400 0.326509 
0.797181 0.442374 0.610075 
0.371610 0.394106 0.973983 
0.352363 0.863256 0.435955 
0.866340 0.333534 0.374500 
0.887228 0.289867 0.248719 
0.888958 0.233217 0.168480 
0.878059 0.250226 0.064790 
0.548145 0.816300 0.508335 
0.558516 0.321301 0.916556 
0.284923 0.715839 0.754339 
0.762473 0.670415 0.507566 
0.758380 0.272967 0.712437 
0.791323 0.678340 0.414522 
0.781215 0.173009 0.654078 
0.228841 0.571503 0.889019 
0.211322 0.828461 0.535738 
0.854755 0.545245 0.382152 
0.825921 0.199182 0.538457 
0.165861 0.454868 0.946037 
0.145864 0.880963 0.351724 
0.407182 0.776354 0.645784 
0.428149 0.535893 0.885680 
0.486075 0.893387 0.260470 
0.467893 0.153279 0.959520 
0.885521 0.478118 0.272392 
0.873096 0.175227 0.397172 
0.122363 0.384369 0.971113 
0.107633 0.893220 0.232634 
0.346118 0.907602 0.113447 
0.319365 0.128181 0.994604 
0.899750 0.416620 0.145540 
0.879965 0.103797 0.258728 
0.589775 0.593881 0.758828 
0.118186 0.316809 0.990197 
0.106685 0.896868 0.151425 
0.290414 0.895939 0.038837 
0.261526 0.104694 1.004147 
0.878314 0.132493 0.120192 
0.882950 0.342082 0.060187 
0.869467 0.147998 0.003917 
0.686139 0.414278 0.770567 
0.692566 0.649969 0.642363 
0.540321 0.739878 0.643567 
0.553235 0.457122 0.861257 
0.795887 0.578953 0.538685 
0.790509 0.339410 0.655778 
0.743636 0.504078 0.677448 
0.394636 0.667194 0.780594 
0.368907 0.194667 0.991802 
0.378298 0.897929 0.223069 
0.429052 0.878908 0.365410 
0.429482 0.282525 0.979191 
0.338317 0.752378 0.698295 
0.349037 0.630211 0.828279 
0.483101 0.798935 0.597321 
0.497559 0.436289 0.907737 
0.303450 0.497307 0.936597 
0.278488 0.843288 0.498670 
0.524588 0.859756 0.401108 
0.521997 0.250039 0.951857 
0.325174 0.563113 0.886823 
0.306180 0.804752 0.599870 
0.262599 0.437489 0.963989 
0.238802 0.872164 0.400468 
0.842235 0.448808 0.446964 
0.858958 0.262161 0.468108 
0.463920 0.357955 0.955702 
0.450791 0.840054 0.477845 
0.378838 0.824965 0.540672 
0.402854 0.460085 0.931921 
0.117718 0.613615 0.835873 
0.108176 0.823021 0.523834 
0.211999 0.782277 0.637118 
0.215402 0.655521 0.811190 
0.105370 0.531027 0.899871 
0.081595 0.855334 0.403139 
0.685316 0.285905 0.808812 
0.692754 0.739805 0.536085 
0.589260 0.884481 0.238435 
0.550706 0.070253 0.907755 
0.197374 0.892342 0.304852 
0.211025 0.380853 0.974793 
0.261582 0.906013 0.145790 
0.252425 0.211191 0.998881 
0.443257 0.699360 0.735802 
0.445554 0.593080 0.837706 
0.301389 0.317150 0.999119 
0.289294 0.898016 0.298605 
0.884672 0.210579 0.279033 
0.892385 0.388544 0.267875 
0.200267 0.521687 0.918860 
0.176521 0.854852 0.456207 
0.511781 0.894350 0.159686 
0.471067 0.056410 0.942454 
0.430629 0.901091 0.137798 
0.398431 0.089682 0.978628 
0.091547 0.466304 0.932081 
0.071869 0.877732 0.310286 
0.145468 0.894324 0.074153 
0.145271 0.226921 1.010397 
0.188112 0.305014 0.992955 
0.181362 0.900067 0.200389 
0.635701 0.492488 0.774431 
0.642312 0.634550 0.697157 
0.575686 0.690047 0.710572 
0.575528 0.517429 0.818270 
0.763904 0.417800 0.674336 
0.768465 0.523272 0.606013 
0.673006 0.547589 0.726030 
0.617570 0.832815 0.437702 
0.602562 0.222572 0.890045 
0.827662 0.528023 0.479151 
0.834340 0.302846 0.574999 
0.713441 0.581828 0.668209 
0.707475 0.458086 0.727661 
0.808065 0.372706 0.613880 
0.732712 0.367075 0.714990 
0.753047 0.629283 0.601457 
0.497017 0.732882 0.690988 
0.505941 0.529002 0.857327 
0.842735 0.372732 0.515940 
0.805019 0.476739 0.537924 
0.872965 0.238839 0.379763 
0.889088 0.312206 0.153871 
0.601512 0.754678 0.582842 
0.606904 0.368380 0.868400 
0.681095 0.352927 0.794951 
0.696126 0.698249 0.598897 
0.528046 0.661851 0.748953 
0.502934 0.614723 0.807182 
0.181066 0.738434 0.721600 
0.619156 0.691428 0.649961 
0.623344 0.430579 0.816305 
0.108063 0.713937 0.745457 
0.106235 0.778307 0.648088 
0.732274 0.748171 0.460838 
0.722024 0.207160 0.759076 
0.850626 0.157437 -0.090486 
0.580146 0.149995 0.902059 
0.604403 0.868260 0.348615 
0.775717 0.072994 0.667233 
0.813953 0.749567 0.338450 
0.804032 0.263212 0.624211 
0.810971 0.599860 0.455108 
0.851956 0.655900 0.319945 
0.811293 0.084495 0.570935 
0.174720 0.113370 1.015096 
0.196344 0.885143 -0.022831 
0.866849 0.085020 0.353196 
0.891188 0.509946 0.186989 
0.886117 0.578169 0.261963 
0.850043 0.093647 0.459036 
0.866171 0.443106 0.352605 
0.649846 0.250485 0.845718 
0.661633 0.794027 0.497865 
0.122426 0.868759 -0.103462 
0.098651 0.086784 1.013818 
0.100081 0.158280 1.016654 
0.106951 0.878035 -0.029816 
0.753399 0.814798 0.311020 
0.717988 0.062715 0.760709 
0.677170 0.858025 0.293140 
0.637754 0.068447 0.841039 
0.764675 0.764423 0.379755 
0.754477 0.127233 0.728256 
0.690239 0.817087 0.399638 
0.667180 0.153275 0.819697 
0.835589 0.621129 0.394703 
-0.375915 0.518499 0.738653 
-0.344277 0.796656 0.098273 
-0.933220 0.393160 0.562523 
-0.270169 0.379263 0.871701 
-0.196998 0.326036 0.904309 
-0.159520 0.245751 0.937036 
-0.114903 0.169017 0.971122 
-0.288791 0.787207 0.331438 
-0.792589 0.356523 0.686188 
-0.691037 0.673094 0.273167 
-0.244798 0.682124 0.641889 
-0.564162 0.331057 0.794934 
-0.147627 0.678164 0.690155 
-0.571735 0.226279 0.816492 
-0.517544 0.728095 0.023896 
-0.894340 0.542508 0.358617 
-0.160623 0.585084 0.783831 
-0.420108 0.261875 0.857819 
-0.392240 0.761197 -0.134480 
-1.045326 0.452321 0.375195 
-0.765308 0.544408 0.503683 
-0.489308 0.747454 0.275083 
-0.120410 0.851385 0.225483 
-0.940504 0.180897 0.636083 
-0.118173 0.503487 0.858889 
-0.353453 0.200895 0.889656 
-0.312260 0.768084 -0.199193 
-1.120268 0.378454 0.367447 
-0.083678 0.852289 0.055669 
-1.057152 0.142397 0.529316 
-0.285623 0.126292 0.911793 
-0.052321 0.404865 0.919849 
-0.547381 0.627331 0.553683 
-0.240661 0.781404 -0.207674 
-1.160521 0.318473 0.380120 
-0.054494 0.858157 -0.002660 
-1.099586 0.113629 0.477489 
-0.178257 0.142255 0.947781 
-0.068711 0.269285 0.957945 
-0.112161 0.088944 0.974616 
-0.381302 0.676718 0.576609 
-0.575675 0.477960 0.704300 
-0.412677 0.744771 0.410870 
-0.695578 0.497307 0.616541 
-0.478622 0.398870 0.801549 
-0.293123 0.615825 0.689346 
-0.448177 0.560383 0.691090 
-0.630599 0.673579 0.367631 
-0.158327 0.848588 0.094934 
-1.015727 0.214798 0.577264 
-0.236578 0.824245 0.161868 
-0.939814 0.302558 0.618827 
-0.571158 0.704709 0.249722 
[...]
POINT_DATA 2044
SCALARS u float 1
LOOKUP_TABLE default
6.921934
6.049074
7.174612
7.098606
1.105577
7.912166
8.582330
8.856358
8.304585
7.267568
5.554847
3.793157
2.656960
3.090057
4.776188
6.215241
7.421432
8.508332
8.884553
8.330862
5.716530
4.187683
3.085193
3.107084
4.772251
5.801334
6.456839
6.576548
6.155713
5.381227
3.986744
2.792850
2.896391
4.144775
5.675619
8.375107
9.026372
8.851931
8.050089
7.022924
5.179578
3.841850
3.291537
4.191921
5.787965
7.434578
8.161883
8.458362
7.994566
7.396370
4.898564
3.535148
2.632344
2.880267
4.130874
5.230882
5.908249
6.234616
5.956911
5.058126
3.964424
2.953826
2.873785
4.046416
5.462532
6.109542
5.340156
4.482795
3.384789
2.626345
1.874382
1.248368
0.999500
1.062678
1.315444
1.174344
1.296079
1.201410
1.110721
1.072283
1.223438
1.240626
1.359412
1.381719
1.440206
1.416744
1.521606
1.699906
1.901934
2.319039
3.028720
3.614483
4.317034
5.047614
5.669308
1.225482
1.278879
1.522166
1.624128
1.627281
1.638677
1.764854
1.897204
2.370025
2.931409
3.634086
4.181849
5.157540
5.990038
6.675975
1.030771
0.938240
1.098515
1.107896
1.172119
1.052618
1.112808
1.332642
1.875853
2.482378
3.247346
4.114913
5.042966
5.926008
6.599911
3.565217
2.704673
1.467263
1.509730
1.202862
1.951724
2.948307
4.421995
3.011321
1.934223
5.275128
2.125443
5.417090
0.899202
1.885481
0.222729
4.073574
0.495373
1.554888
1.592208
3.000634
3.111404
2.847137
1.853181
2.938112
0.647273
1.442690
2.774456
1.796168
1.338224
2.297206
2.445657
4.095948
1.389014
3.301974
2.534454
1.229872
3.339892
2.528722
4.271218
3.430496
5.079829
4.354760
3.365522
4.625093
2.511742
4.155837
2.875426
1.794167
1.584806
2.315003
2.487486
2.306494
2.500604
3.964042
3.193139
2.421143
0.735188
3.775597
2.702643
2.417172
1.555712
2.114485
0.366997
3.153163
0.914177
2.947506
3.044876
2.244586
2.816864
1.128580
1.149700
0.719863
1.513132
1.369083
2.004164
2.662748
5.574754
4.358845
1.572603
1.301219
1.616157
1.813228
1.328452
3.396524
3.233875
2.115882
0.734868
1.267184
1.968752
1.775455
0.666637
3.112710
1.399726
2.219083
1.483175
1.395117
2.670281
3.494161
1.340385
1.409514
2.158419
3.755495
4.653258
4.625494
3.738055
3.375826
4.279512
4.312182
5.062758
2.379728
4.128305
1.851192
4.801126
3.668351
2.798408
2.827652
5.199007
4.070949
3.506978
2.449214
3.715899
0.553516
1.800709
4.898771
3.280447
3.081510
5.479268
4.126067
3.857751
1.146240
4.840714
3.421192
1.175106
0.995227
5.751447
1.757869
5.165847
1.950865
4.866719
0.814480
6.368542
1.505817
4.686678
5.206620
0.541958
1.196506
3.765649
1.931939
3.194918
4.354299
1.028909
2.719367
2.456916
5.637927
5.009573
1.139640
1.276922
4.600689
6.032038
1.248904
5.559839
1.417007
5.921892
1.382846
5.739726
1.659988
4.874152
2.234628
5.799585
5.436132
1.984609
1.764846
1.620718
1.346105
4.400397
3.943773
0.322669
2.445159
2.453264
2.234788
2.454706
4.788706
3.862439
2.135046
2.072903
7.033195
6.527971
2.412033
3.036880
4.737060
5.068820
1.871206
1.825409
7.769961
7.723694
5.770108
6.224863
1.760026
1.510397
1.336180
7.928767
8.333155
5.905379
6.581971
1.542936
1.403196
1.249534
2.337173
2.057794
2.883030
2.378503
2.224087
2.495045
1.860210
0.656938
5.715419
6.146129
5.503692
5.489556
2.140855
1.351062
3.857920
3.444006
5.366046
4.779396
4.658607
4.642993
3.132227
4.047483
5.785392
6.507790
2.115216
2.035845
4.744045
5.218509
4.306617
4.637158
3.993593
4.780377
2.069599
2.782175
6.561231
6.012022
2.648140
2.883641
3.460683
3.866093
7.039122
6.637609
6.892037
7.161298
0.796210
1.918338
6.637884
6.611429
1.757631
5.421042
6.001947
3.674350
4.496011
4.686065
5.309049
7.203966
7.550563
7.657449
8.236167
7.676637
7.386990
1.985375
1.667426
1.577152
2.117435
2.266497
2.002355
1.694088
3.596259
3.743382
2.242925
2.279031
1.867200
1.967992
2.363731
2.427669
2.284223
1.877068
2.537276
1.790036
2.092240
2.192574
1.617365
3.364817
2.898153
2.927879
2.518924
1.099046
1.168935
1.390646
2.070636
2.587762
2.333444
2.627801
2.710140
2.659601
3.900662
3.590352
2.131097
2.109858
2.288174
2.311446
2.138518
1.985810
6.528803
7.335431
1.743853
1.632068
1.747435
1.807326
3.123029
3.204482
7.619039
6.576295
8.143388
7.356492
2.020687
2.352026
2.454312
2.909312
3.182580
1.884948
2.430288
2.513904
3.173449
3.049746
1.258353
1.213583
2.882984
1.941196
2.526539
2.432969
2.054159
1.650789
1.568381
2.035170
6.057529
2.279669
2.556448
1.628215
1.486158
4.503718
4.944884
2.114772
1.902782
2.795825
3.283268
4.491622
4.437961
1.537649
1.311112
1.974263
1.646329
1.978928
2.351369
3.358147
3.130153
1.212442
1.473573
4.595156
2.248447
2.426085
4.397100
4.172135
1.431517
1.595053
3.286760
3.379273
3.671122
3.724075
2.591965
2.692000
3.313653
5.242163
1.607163
1.590885
0.566836
0.677615
5.333800
5.382871
3.087126
3.581283
3.490291
4.174803
0.223289
0.653575
4.929386
4.601898
2.983470
2.493830
2.305633
2.710725
2.284884
1.730463
3.923454
3.093042
5.905429
5.330036
5.908938
5.705707
4.017391
4.707801
2.334381
1.851523
2.255562
2.087483
1.696336
2.012166
2.608667
2.497111
4.780963
4.922753
1.111751
0.773931
1.737684
2.200677
4.474603
3.771599
3.038614
2.971178
3.120252
2.956277
3.467428
3.056702
3.217163
3.286626
1.755000
1.790793
3.934925
3.995638
4.198956
4.245876
3.172068
2.998591
3.732004
0.373283
0.826005
2.460567
2.482166
3.436587
3.438561
2.680941
3.100741
3.001922
4.489662
4.331997
2.628211
2.802692
2.563237
2.598016
2.847370
2.912489
2.256530
4.626375
4.742854
6.380482
3.619326
3.514381
6.545308
6.260946
1.683915
1.286164
0.589686
0.874137
1.274483
0.874034
2.332832
2.049432
1.309204
1.390813
4.952836
4.936081
1.288436
1.499613
1.384042
1.202365
1.599835
1.280667
5.839711
5.964666
4.786396
4.728901
2.212152
1.237917
0.946005
1.297936
1.649079
0.948146
0.964207
0.901859
0.620449
0.568471
1.279461
1.047820
1.100031
1.142826
3.574438
5.323119
1.391301
5.794766
6.561833
6.937068
7.192881
7.208763
3.207580
1.473607
2.415009
1.939404
2.983872
2.922159
2.755861
4.031432
1.593217
5.062030
4.286750
5.090615
1.161484
1.470768
3.469646
6.122431
1.340199
4.712148
6.522689
5.500675
1.034473
8.157809
1.202361
7.800620
4.792914
1.627316
6.124638
1.063375
8.376145
1.171174
7.889150
6.146416
1.216858
2.374115
2.030786
1.728348
3.718273
3.167018
2.836814
2.023196
7.161859
1.299717
5.581505
1.451254
2.863207
1.917345
3.164131
1.583285
4.632718
1.322157
4.453677
1.384391
1.564014
3.656131
1.232569
5.315059
5.536877
4.807536
1.417587
4.380357
1.516862
4.270685
1.323864
3.234031
2.074005
3.161624
4.004810
1.140371
2.263690
0.364411
5.485585
1.334904
5.885315
1.201135
7.630754
1.210320
1.753736
2.510331
1.339553
6.511689
5.788749
7.023639
1.339083
4.572402
6.871592
1.267372
7.665601
1.253443
1.127305
4.414207
7.005654
0.972023
1.134520
6.735217
1.309983
2.024004
1.703372
1.713059
2.999983
3.192104
1.957695
3.120621
1.540469
4.229970
4.446690
2.533778
1.962740
3.837295
1.920692
2.926417
2.264792
1.563697
4.686497
3.936590
1.761039
1.841069
0.707461
2.248599
6.361895
1.712242
1.867976
2.441147
1.840935
1.152440
1.705167
2.384810
2.484393
0.415982
1.332864
4.119233
2.461244
1.880260
3.665387
3.574689
3.113655
4.180353
7.973316
0.991877
3.855775
7.297978
6.317305
3.179074
1.930046
1.681613
1.023573
7.493700
0.919430
7.076421
5.109652
1.762827
1.274038
3.584800
1.286368
2.217480
1.374114
2.004725
1.629414
2.012440
8.152886
6.064263
1.046651
2.086962
2.814218
3.178243
1.654297
3.043133
2.256871
2.908325
3.110222
4.558140
4.230948
1.088847
1.640322
1.473970
3.636153
3.635691
1.756672
2.739690
5.455612
4.283834
3.091457
1.278498
2.944594
5.751709
6.050815
3.679307
5.196399
3.349109
1.633713
2.632312
3.123936
4.061787
3.810061
5.380087
2.949264
4.867716
1.074751
2.464369
2.389793
1.620243
2.828717
1.988918
1.665036
2.887022
3.056026
4.852302
5.113415
6.932766
1.736610
5.825723
1.044274
6.503247
6.651253
6.311929
3.076223
4.812354
2.113951
1.176965
2.402927
3.715068
2.979302
4.412780
1.253700
3.687171
4.997188
2.845454
3.178981
4.102798
1.285100
4.109808
3.043479
7.099147
4.148291
4.693064
3.966883
2.492796
4.300163
2.923492
4.372419
1.735695
1.820760
1.930714
1.113545
2.828193
3.085696
2.761689
4.154863
1.857503
2.380308
4.302548
1.175496
1.868695
4.284767
2.805883
5.253158
4.269278
3.683374
0.933393
6.865006
2.432022
1.707716
3.512059
1.012411
7.213528
2.230843
1.222375
3.058291
4.198002
3.252110
6.762638
4.422336
4.049926
3.504497
2.475098
3.572336
6.491497
7.709808
2.395432
6.403070
1.313286
1.973714
1.528630
1.779258
5.077623
3.132956
5.118822
1.413830
5.913304
1.788868
3.763822
3.796903
3.429902
7.517035
3.758581
3.236505
3.629275
3.067838
1.825891
5.175758
3.718945
5.490431
6.368207
4.318404
5.905523
2.605399
2.339744
3.110596
3.945612
1.451995
2.543754
3.147054
3.296641
2.201574
3.411899
1.916826
2.186947
1.567621
1.016782
5.205248
7.155878
1.158275
5.245228
2.944528
2.657628
2.541078
3.490763
2.357203
5.531938
2.905409
2.490829
3.188684
4.579471
2.307785
1.450809
5.899270
1.491720
2.174735
2.139389
3.006963
2.965962
2.922877
6.064296
5.318113
4.800688
3.722439
5.916500
3.434463
1.222903
3.313481
7.753919
5.394870
3.959644
5.811069
1.003830
3.668756
1.237806
5.116314
3.535308
2.486861
4.984617
5.184681
4.428010
7.514643
1.479722
1.168812
1.146840
1.716021
4.640508
2.731112
2.480149
6.249028
7.925448
5.134640
6.287245
3.490763
3.393605
3.096941
7.506573
5.770139
1.868290
2.740700
3.640019
4.370767
7.270759
3.812745
4.975393
3.428660
3.162211
2.071184
1.115174
6.282520
4.377937
4.481689
6.784643
6.512005
2.288517
2.933492
7.149379
3.033690
3.463959
5.539700
3.509375
5.655573
2.866535
2.869441
7.581950
1.894465
2.826217
8.090462
4.922347
4.386896
4.311300
1.367081
2.545918
2.301625
6.031849
2.101412
3.769722
1.269082
4.481372
2.785241
6.518321
3.302065
1.083945
3.644790
3.253004
1.563658
2.330034
3.431467
1.275308
0.981098
3.804632
2.631483
3.333614
5.204928
5.315392
5.876629
3.792486
4.156915
2.809041
5.155008
3.606321
6.373883
2.035134
3.841572
3.970139
2.200568
3.520498
1.149129
0.973532
3.894903
1.778768
3.259583
3.655220
7.904040
2.124777
2.867891
4.196653
3.436319
4.831049
2.513394
1.399837
1.527590
1.311440
4.468066
5.263967
4.442728
3.739387
1.435297
3.146262
1.407715
3.715130
2.735703
1.251595
2.463509
1.929804
2.680797
1.443374
3.925328
5.521299
2.652071
3.625800
4.082574
2.551362
3.680683
4.585202
4.398755
1.759179
3.079175
4.746941
5.563092
4.691069
2.100205
2.919430
3.208725
4.595624
1.815446
1.590905
3.618051
6.822159
4.557975
2.813899
3.663146
8.230329
2.499221
2.099584
1.931501
4.471792
2.150973
4.493833
1.151548
2.694817
4.667282
5.443428
2.401667
2.621593
2.967970
1.728068
4.102051
3.561846
5.325116
3.244318
2.244971
1.965079
7.309092
2.736568
1.126714
1.416647
3.227521
3.561417
4.518679
1.707648
6.421035
2.872697
5.881916
5.820557
3.092629
2.924299
3.260186
4.226477
5.398978
3.636835
5.089654
4.724308
3.481366
2.997066
4.610964
3.653966
1.910374
4.806717
3.458830
1.548288
2.412537
2.063045
1.074640
1.625428
7.314565
0.920083
1.357406
8.050674
1.769686
3.059043
2.435967
0.853857
0.526543
0.611704
3.998512
1.924460
2.148086
1.107779
2.347857
1.227432
0.944927
0.528105
1.683135
5.624920
4.202784
4.716895
2.174802
1.347257
1.209145
1.197700
1.854922
1.174710
0.804358
1.595828
3.932309
4.517701
6.240600
0.988205
0.276148
0.669358
1.076221
1.107059
0.962760
0.947649
1.227306
0.653527
1.571738
1.199008
0.804503
1.375344
0.916728
1.077124
1.386992
1.443117
0.875668
1.167449
1.198805
1.193001
1.508963
1.134181
0.796363
0.289031
0.316509
1.028757
1.028147
0.425400
0.482397
2.582980
1.354697
1.764746
0.714735
1.189185
1.696069
1.765776
0.332705
2.545505
0.680253
2.487812
1.183267
2.769676
0.756378
1.039584
1.475817
1.093645
1.603800
2.623094
1.397734
1.148294
0.952134
1.400677
1.784515
5.002313
6.334008
5.343009
4.108373
4.080149
4.604361
3.335770
6.063846
3.487613
5.971399
4.878676
2.850983
1.983876
2.790906
1.934617
0.746732
4.056190
2.543113
1.856749
1.394040
0.727184
2.546073
1.450073
0.521146
1.070836
1.191566
1.613798
1.823539
1.331419
1.814006
1.646413
1.490176
1.445526
1.771139
1.433883
1.362573
2.557159
2.089781
1.319189
1.495768
2.394924
1.060112
1.421894
1.999468
1.118013
1.394834
2.423914
1.229224
1.287964
0.407748
1.199739
5.207382
5.740106
5.247346
5.080349
1.284059
1.420719
1.298399
1.264525
1.181639
1.699063
1.297717
1.684042
1.547379
2.096199
3.835254
1.474306
1.522873
0.693657
2.536768
2.206628
1.326566
3.200980
1.147483
1.337551
2.470458
3.990258
3.555349
2.526109
3.040764
2.825241
2.412737
0.614268
2.675358
2.333880
3.589007
1.390543
0.769884
0.834896
0.471720
1.400427
1.413248
2.190151
2.433442
2.188569
1.609215
1.321393
1.463332
1.116954
1.896413
1.201089
4.544495
3.202281
3.329978
4.036360
3.719074
4.232010
2.325715
1.114447
2.271345
3.468137
1.664439
1.812240
2.256753
2.388496
4.850329
1.136258
1.158002
0.584982
0.178555
1.291308
1.299843
1.255452
2.532108
1.169096
5.086284
2.562741
4.215474
1.461606
1.261376
2.487821
2.427417
2.780568
1.105970
1.978468
1.672963
0.407069
0.649372
1.881602
1.417185
4.150666
1.168112
2.029565
0.883022
0.903953
0.680050
2.391974
0.784640
0.574806
0.208479
0.705987
0.383166
0.725810
1.167153
3.130228
3.635985
3.308794
0.288163
4.845435
1.037185
0.919081
1.108477
1.070223
0.963030
0.860419
2.603724
3.843632
2.243550
1.641634
1.937004
1.442668
0.788575
1.035550
1.123105
0.889742
1.391522
1.008688
2.959570
3.355844
1.561896
1.530524
0.854464
1.143357
1.602737
2.778050
2.917276
1.668452
4.764898
1.761870
0.909689
4.914727
1.040333
6.145576
6.900735
5.841216
5.196249
5.242113
5.647669
3.964369
4.587585
1.027808
0.945328
0.944457
1.108469
1.063253
1.085942
1.052756
0.766885
0.971625
1.883363
5.518217
2.287076
1.845602
2.069385
3.152291
3.110218
3.028117
3.214650
3.404448
2.127187
1.775346
3.172744
2.231803
3.284619
3.194439
4.268601
4.669623
2.052195
2.212085
3.208845
4.587090
1.795945
3.207954
2.026305
1.461005
3.025149
2.988114
3.302984
3.237980
3.848976
3.207478
3.956272
2.705911
3.175925
3.064712
2.554156
4.278748
4.022049
1.365829
3.874667
1.097996
0.565978
0.717402
0.955334
0.981577
1.393280
0.979967
1.182552
0.956430
0.519355
1.885391
1.473570
0.712517
0.882767
1.409192
0.895828
0.903757
3.946777
2.120315
1.460848
2.154190
0.810324
1.465675
1.132395
1.246698
0.653999
0.361792
2.010619
2.321808
2.552492
1.818890
1.303368
0.873739
1.114447
0.846997
0.637821
1.828564
2.039770
1.307808
1.126347
1.355748
1.434091
0.982185
3.951912
3.450475
2.833555
3.200746
2.606114
2.124017
1.647404
1.156040
0.873314
1.416083
1.115707
1.090186
0.984067
4.324820
3.323304
4.132337
5.384685
2.018513
1.315119
1.692817
1.745584
2.631299
1.911213
2.371586
1.731914
1.947521
4.318787
3.606959
3.598197
2.100194
2.280148
1.696098
1.535767
1.559011
1.705010
1.800469
2.185567
1.638490
1.357307
1.262258
1.256563
2.981510
3.712957
3.834628
2.481881
3.095693
3.562547
2.580160
2.047217
2.563708
1.303383
6.284161
5.674418
0.787927
3.122739
1.537573
1.373066
1.781651
2.063600
2.143696
0.962004
5.374938
4.664954
4.729852
4.377364
2.352650
1.271214
1.347677
1.369940
1.048298
3.803655
3.087953
2.666442
2.634280
2.094186
1.926278
2.504248
2.988831
3.132562
4.746296
0.989719
3.438733
3.161533
2.395048
1.880097
1.396597
1.066963
0.912163
0.828500
2.514315
2.097803
4.363878
1.826861
4.342603
2.936265
3.473232
0.932366
1.157611
1.188975
2.568881
1.958772
2.211347
3.514744
2.427678
2.006178
5.210301
1.203455
1.467352
0.986466
0.944076
4.499667
1.904880
1.494295
2.065852
2.315228
1.865295
1.596219
1.748984
1.254023
3.704388
4.006041
3.660311
3.361971
1.590650
2.665512
2.402549
2.911663
4.748744
3.231935
6.086058
0.906774
3.189065
4.646194
4.033124
4.079905
3.092341
2.390934
3.507340
2.255749
2.432254
5.017041
4.443439
1.028618
0.933484
0.699915
0.992435
0.839705
0.771848
3.555948
1.536219
1.469465
1.433378
3.488178
2.246209
3.728598
2.733416
2.326298
2.299479
2.477272
2.421108
1.834057
2.177913
2.455256
1.826750
1.661626
1.325273
1.185091
0.971651
1.607678
2.538809
4.152472
1.043143
0.969034
0.765434
2.388436
2.490611
1.334838
2.193018
2.825156
1.679442
2.746209
2.096529
3.057446
3.648942
2.593154
1.952458
2.928531
4.861409
5.870890
4.662102
4.110869
2.747827
2.710279
2.786652
4.264975
3.607232
2.646482
3.579885
1.653414
1.472241
2.644515
2.327348
2.394236
1.748571
2.925465
4.300358
4.795092
3.713569
1.402708
1.078132
1.564143
1.761082
1.130751
0.917237
1.150285
1.156222
2.551222
3.098204
2.542104
4.178025
3.177792
2.506373
2.870146
2.729478
3.386706
1.565531
3.661506
1.681021
1.326320
6.140569
1.699881
1.492576
2.673329
2.177417
4.933092
2.703736
2.055146
1.066179
1.924122
1.550440
2.501857
1.844858
3.913745
3.375435
2.315362
2.257780
1.759875
2.359043
3.011009
2.532156
3.158650
2.547745
1.841818
0.770998
0.881029
0.551310
1.969783
1.255383
1.322561
3.826657
3.192355
1.874694
4.343573
3.886443
6.530858
5.003304
2.871310
2.163958
1.712078
3.151775
2.879575
3.898581
2.111971
2.262126
1.953964
2.106854
4.204876
1.632294
1.005720
4.822860
4.926788
4.224604
3.596276
3.047970
2.022396
2.360896
2.181037
2.092053
2.125970
2.080601
2.268967
1.022921
0.890733
1.118490
2.202617
0.911406
3.090215
3.011411
2.428440
4.612277
3.063633
1.175431
1.143923
1.137715
0.774930
1.790813
2.211946
2.076137
1.977740
1.034817
4.446871
4.941069
4.004654
4.048964
0.860550
1.232540
0.927285
2.251452
2.504015
1.445873
1.017388
0.858244
0.945377
0.900130
2.419134
1.796342
2.416687
2.228887
1.561427
3.134619
2.258371
1.947929
1.420434
3.169964
2.516640
1.796845
2.599070
5.410218
4.845931
2.427858
3.283693
2.490587
2.101081
1.298772
2.717030
4.493525
3.497671
2.851065
2.910369
1.602332
1.720002
2.013498
1.451745
4.737475
5.031764
1.064463
1.065868
1.106424
1.041914
1.440491
1.531780
3.760024
1.246554
0.980666
2.025600
1.711107
2.323019
2.644734
2.502355
1.813059
1.759927
1.380253
3.413372
3.486637
4.140779
3.190195
2.861499
1.414508
0.511189
0.936132
0.421211
0.617086
0.381817
0.358214
0.630735
0.361968
0.982349
0.934511
0.546010
0.833408
0.432391
1.878088
1.501896
1.791326
2.086160
1.944699
1.933667
0.172504
0.989887
0.186314
0.488296
0.861400
0.519039
0.490069
0.558525
0.889506
0.903902
1.229626
1.663625
1.341355
1.934140
0.772659
0.834902
0.877439
0.443986
0.830982
0.440331
0.182517
0.224401
0.033145
1.225911
0.826654
1.773195
1.142493
0.661388
0.623480
0.807791
0.836163
2.369841
0.796948
0.206425
0.189937
0.336599
2.204497
1.152102
1.640041
0.197153
0.430523
2.421090
0.596994
0.464500
0.809484
0.905540
0.546260
0.507308
2.451759
1.201732
2.496236
0.896720
1.768786
1.031834
0.358236
0.562839
2.540318
1.873318
1.666581
1.399994
1.556800
2.039411
1.880446
2.379549
1.987975
3.024075
2.667481
3.338844
2.432216
2.673441
3.297288
2.864308
2.291032
2.381628
