# vtk DataFile Version 2.0
Unstructured Grid Example
ASCII
DATASET UNSTRUCTURED_GRID
POINTS 2044 float
0.880676 0.059886 -0.131099 
0.046135 0.901031 -0.121717 
-1.120921 0.041767 0.145767 
0.056797 -1.113517 0.143909 
0.023945 0.017814 1.001583 
0.866819 -0.038866 -0.160527 
0.844096 -0.144277 -0.180436 
0.816722 -0.247914 -0.189363 
0.790669 -0.345267 -0.176778 
0.764690 -0.443410 -0.155142 
0.735492 -0.549880 -0.115341 
0.696461 -0.647746 -0.066901 
0.652449 -0.751745 -0.013363 
0.610119 -0.841252 0.041607 
0.553624 -0.922773 0.091266 
0.483300 -0.986621 0.130858 
0.410885 -1.038807 0.161998 
0.332659 -1.086642 0.185151 
0.244141 -1.118936 0.190234 
0.152528 -1.127438 0.173933 
-0.034012 -1.089576 0.104274 
-0.124782 -1.050606 0.054739 
-0.219458 -1.000749 0.004455 
-0.314136 -0.946322 -0.043035 
-0.396739 -0.866100 -0.104009 
-0.482870 -0.794792 -0.134024 
-0.568219 -0.726183 -0.154573 
-0.651645 -0.643314 -0.156395 
-0.732629 -0.570388 -0.148196 
-0.803676 -0.489118 -0.126380 
-0.875224 -0.408023 -0.086909 
-0.945813 -0.323699 -0.041707 
-1.010467 -0.233796 0.008603 
-1.058774 -0.143343 0.061591 
-1.096157 -0.053145 0.106442 
-1.135360 0.135626 0.173758 
-1.131670 0.229016 0.188731 
-1.106713 0.317709 0.184590 
-1.061690 0.405015 0.166925 
-1.007715 0.474001 0.142162 
-0.934816 0.536638 0.092548 
-0.858221 0.595980 0.045265 
-0.765198 0.640529 -0.010473 
-0.669273 0.685583 -0.063091 
-0.568680 0.725740 -0.114583 
-0.467497 0.759168 -0.159079 
-0.360993 0.795963 -0.178453 
-0.261336 0.824529 -0.184143 
-0.161493 0.859268 -0.175523 
-0.058082 0.878669 -0.157495 
0.148798 0.912026 -0.089669 
0.251550 0.918210 -0.045042 
0.348946 0.916678 -0.001078 
0.445177 0.903752 0.041851 
0.539210 0.886412 0.088603 
0.624557 0.856756 0.120813 
0.696735 0.816945 0.140325 
0.764791 0.758104 0.149919 
0.812549 0.699422 0.141908 
0.858683 0.620556 0.117183 
0.888768 0.535495 0.085611 
0.908623 0.444683 0.047948 
0.909759 0.351951 0.002446 
0.901862 0.254691 -0.046728 
0.894555 0.156103 -0.091127 
0.899903 0.040064 -0.030793 
0.905746 0.021915 0.073734 
0.902162 0.013373 0.183024 
0.892118 0.012462 0.297785 
0.865329 0.005704 0.402604 
0.829656 0.000696 0.504939 
0.785852 -0.005436 0.603663 
0.728016 -0.006527 0.691289 
0.662590 -0.005044 0.775177 
0.588770 -0.004420 0.843416 
0.500339 -0.001092 0.894918 
0.412571 0.001958 0.942056 
0.317343 0.007928 0.973056 
0.220009 0.011510 0.992953 
0.121801 0.013781 1.004381 
0.025038 0.118335 1.002535 
0.022090 0.219160 0.988362 
0.022609 0.318366 0.964061 
0.019870 0.413866 0.929158 
0.019540 0.504943 0.884834 
0.017401 0.589245 0.826003 
0.011023 0.667473 0.751192 
0.009682 0.735739 0.672494 
0.007399 0.790682 0.586683 
0.005452 0.834858 0.493211 
0.007459 0.868587 0.390962 
0.008692 0.895337 0.289643 
0.013622 0.910707 0.184005 
0.020195 0.914735 0.077416 
0.030503 0.909853 -0.025573 
-0.072091 0.018921 0.986983 
-0.167451 0.015316 0.966762 
-0.257664 0.014677 0.936603 
-0.345137 0.017655 0.909525 
-0.428913 0.010986 0.878848 
-0.513400 0.008719 0.841853 
-0.591733 0.009159 0.792303 
-0.670438 0.007901 0.742080 
-0.753839 0.010401 0.694633 
-0.827280 0.010101 0.634054 
-0.896396 0.008935 0.568150 
-0.953073 0.007898 0.491607 
-1.012637 0.013038 0.417428 
-1.060392 0.013792 0.335417 
-1.100536 0.024738 0.242436 
0.021367 -0.080692 0.990746 
0.016421 -0.176995 0.973991 
0.014969 -0.267605 0.944968 
0.012769 -0.357669 0.913480 
0.010676 -0.443910 0.870328 
0.007169 -0.528045 0.832265 
0.004475 -0.608239 0.787181 
0.000932 -0.683248 0.734082 
-0.000645 -0.759638 0.683302 
0.002553 -0.828588 0.622563 
0.002268 -0.894337 0.558267 
0.009102 -0.953896 0.489404 
0.024044 -1.011719 0.412779 
0.036387 -1.056515 0.331482 
0.044411 -1.092707 0.240660 
0.786448 0.443810 0.553091 
0.359181 0.386531 0.932457 
0.347165 0.863333 0.412656 
0.876124 0.329439 0.352346 
0.904572 0.281607 0.244990 
0.913669 0.223129 0.185680 
0.913177 0.229908 0.090377 
0.537286 0.807252 0.437795 
0.543759 0.321033 0.869840 
0.282153 0.702120 0.726155 
0.747684 0.654671 0.424506 
0.745129 0.278051 0.680905 
0.777347 0.659871 0.329487 
0.773410 0.176998 0.642365 
0.221558 0.557387 0.862776 
0.210622 0.824971 0.535059 
0.848137 0.529924 0.318014 
0.827058 0.202527 0.531214 
0.154743 0.440928 0.928093 
0.142260 0.887468 0.376537 
0.405714 0.768149 0.597683 
0.418803 0.529080 0.836399 
0.462581 0.893110 0.220551 
0.451230 0.153634 0.934396 
0.887127 0.459747 0.228291 
0.879576 0.176222 0.405413 
0.110777 0.369332 0.957308 
0.101581 0.908681 0.274608 
0.322286 0.924509 0.113061 
0.305585 0.122258 0.978823 
0.912980 0.389233 0.123820 
0.899433 0.100196 0.293242 
0.580374 0.589998 0.692971 
0.105782 0.302855 0.977465 
0.098602 0.919202 0.199609 
0.265796 0.924002 0.056348 
0.247762 0.097461 0.991554 
0.911374 0.124024 0.162475 
0.912342 0.313638 0.064611 
0.913107 0.128797 0.054470 
0.673119 0.419254 0.716524 
0.677131 0.641237 0.561643 
0.534411 0.731796 0.573429 
0.542473 0.457036 0.807570 
0.783483 0.567196 0.465405 
0.778466 0.342015 0.616816 
0.728947 0.503225 0.611457 
0.390940 0.659672 0.734570 
0.353680 0.191182 0.967144 
0.359543 0.908541 0.208912 
0.414740 0.878975 0.330572 
0.415009 0.278829 0.941579 
0.336955 0.741946 0.662275 
0.343647 0.619772 0.789330 
0.477517 0.789134 0.533823 
0.486543 0.433294 0.857057 
0.292046 0.486067 0.900608 
0.276463 0.842357 0.486918 
0.506702 0.853809 0.342645 
0.505084 0.248337 0.911306 
0.317585 0.552397 0.849755 
0.305727 0.798520 0.575343 
0.250473 0.426029 0.933904 
0.235617 0.876580 0.402918 
0.843434 0.443250 0.395980 
0.859739 0.265802 0.453709 
0.451284 0.354137 0.909601 
0.443088 0.837404 0.428981 
0.376364 0.821190 0.504434 
0.391357 0.454126 0.887961 
0.112592 0.598161 0.827386 
0.106636 0.819362 0.542112 
0.211000 0.773150 0.629847 
0.213124 0.641336 0.791200 
0.094930 0.515143 0.888260 
0.080088 0.860456 0.435305 
0.669918 0.292170 0.768808 
0.674561 0.725728 0.448354 
0.555442 0.876523 0.176613 
0.531373 0.071621 0.891053 
0.191412 0.902013 0.322715 
0.199934 0.370161 0.953485 
0.245966 0.925209 0.161849 
0.240249 0.202677 0.983185 
0.439970 0.692206 0.681107 
0.436440 0.586484 0.786310 
0.287678 0.308768 0.968676 
0.280127 0.905560 0.297191 
0.901111 0.207684 0.291133 
0.901380 0.373714 0.240948 
0.189759 0.507765 0.895836 
0.174935 0.855877 0.466887 
0.479018 0.897816 0.121227 
0.453601 0.056754 0.927846 
0.402616 0.912178 0.117904 
0.382515 0.087867 0.960583 
0.080003 0.449749 0.921696 
0.067719 0.887767 0.352350 
0.132363 0.924239 0.120682 
0.132240 0.216051 0.996701 
0.176775 0.294604 0.975956 
0.172561 0.917968 0.229289 
0.626709 0.494967 0.714048 
0.630837 0.626723 0.622738 
0.565675 0.678237 0.636929 
0.565577 0.516353 0.758284 
0.752332 0.420217 0.620702 
0.758020 0.522853 0.537177 
0.661494 0.545461 0.656857 
0.595198 0.819507 0.359557 
0.585828 0.225254 0.855235 
0.820714 0.518766 0.412992 
0.825057 0.305169 0.546442 
0.699572 0.578123 0.591429 
0.695849 0.460253 0.669163 
0.797836 0.375376 0.569597 
0.722012 0.373455 0.670706 
0.734707 0.617200 0.519775 
0.490925 0.723545 0.625702 
0.496496 0.524577 0.801233 
0.838563 0.373220 0.476315 
0.801454 0.475743 0.477582 
0.881622 0.239419 0.377352 
0.912533 0.294650 0.154496 
0.589705 0.745909 0.504512 
0.593071 0.370628 0.816903 
0.668521 0.358888 0.746788 
0.677904 0.686419 0.512442 
0.519907 0.655488 0.682625 
0.493938 0.608400 0.745390 
0.178755 0.722595 0.712031 
0.609712 0.683982 0.572130 
0.612326 0.435175 0.761940 
0.103576 0.695431 0.743751 
0.102713 0.763929 0.654649 
0.714253 0.727981 0.371265 
0.707755 0.212759 0.734932 
0.904707 0.129291 -0.032637 
0.562512 0.151359 0.875705 
0.577655 0.854605 0.275354 
0.763243 0.077342 0.666195 
0.786794 0.717878 0.243616 
0.795845 0.264625 0.601164 
0.800538 0.587216 0.380642 
0.833330 0.629765 0.241552 
0.807801 0.088468 0.577990 
0.160908 0.104963 1.004258 
0.174407 0.923131 0.019936 
0.879150 0.082189 0.381981 
0.894204 0.480397 0.144333 
0.876327 0.549521 0.197916 
0.853521 0.094098 0.475404 
0.870785 0.432023 0.310023 
0.634047 0.255557 0.809352 
0.641423 0.777059 0.410018 
0.099187 0.916685 -0.041772 
0.084345 0.076995 1.007242 
0.085696 0.147217 1.006542 
0.089985 0.920005 0.029792 
0.722198 0.786013 0.222540 
0.700106 0.067358 0.752251 
0.643964 0.838004 0.211418 
0.619352 0.071101 0.827409 
0.744234 0.736369 0.289881 
0.737658 0.131924 0.714069 
0.665473 0.796878 0.311898 
0.651029 0.157988 0.798571 
0.820585 0.603511 0.318856 
-0.402201 0.496046 0.749907 
-0.355424 0.821756 0.188542 
-0.907010 0.385940 0.478364 
-0.293095 0.357301 0.877582 
-0.217854 0.308175 0.912703 
-0.180214 0.230823 0.943683 
-0.132149 0.155760 0.973663 
-0.300738 0.789090 0.402000 
-0.792450 0.343022 0.623463 
-0.686636 0.675435 0.274814 
-0.260466 0.661981 0.672407 
-0.588340 0.314315 0.767949 
-0.161211 0.657288 0.716643 
-0.597508 0.212101 0.789481 
-0.523702 0.762315 0.093616 
-0.866098 0.539286 0.302575 
-0.178043 0.560335 0.800877 
-0.448749 0.245322 0.851259 
-0.401831 0.812701 -0.032753 
-0.990076 0.439338 0.285426 
-0.761253 0.534396 0.465957 
-0.499998 0.750107 0.323247 
-0.133114 0.866890 0.299899 
-0.922525 0.170875 0.556228 
-0.134567 0.479547 0.868103 
-0.379153 0.186043 0.890607 
-0.324316 0.830561 -0.089964 
-1.050422 0.365640 0.263778 
-0.094476 0.889978 0.140965 
-1.017870 0.131133 0.436653 
-0.310029 0.113385 0.919388 
-0.067001 0.385604 0.924009 
-0.560969 0.610880 0.557843 
-0.255317 0.847120 -0.097646 
-1.083795 0.303894 0.269302 
-0.066122 0.900416 0.082836 
-1.051134 0.103039 0.382583 
-0.198918 0.129807 0.954729 
-0.083378 0.252258 0.961957 
-0.128849 0.078125 0.978830 
-0.398668 0.657936 0.604742 
-0.594857 0.459009 0.684457 
-0.429290 0.734851 0.453598 
-0.704141 0.482122 0.581994 
-0.504522 0.378204 0.787009 
-0.313119 0.591874 0.715312 
-0.468327 0.538375 0.696143 
-0.636827 0.667762 0.374081 
-0.168495 0.877738 0.182645 
-0.982080 0.203749 0.483753 
-0.250145 0.844850 0.247943 
-0.916997 0.291335 0.533213 
-0.582906 0.712188 0.281646 
[...]
POINT_DATA 2044
SCALARS u float 1
LOOKUP_TABLE default
6.921934
6.049074
7.174612
7.098606
1.105577
7.912166
8.582330
8.856358
8.304585
7.267568
5.554847
3.793157
2.656960
3.090057
4.776188
6.215241
7.421432
8.508332
8.884553
8.330862
5.716530
4.187683
3.085193
3.107084
4.772251
5.801334
6.456839
6.576548
6.155713
5.381227
3.986744
2.792850
2.896391
4.144775
5.675619
8.375107
9.026372
8.851931
8.050089
7.022924
5.179578
3.841850
3.291537
4.191921
5.787965
7.434578
8.161883
8.458362
7.994566
7.396370
4.898564
3.535148
2.632344
2.880267
4.130874
5.230882
5.908249
6.234616
5.956911
5.058126
3.964424
2.953826
2.873785
4.046416
5.462532
6.109542
5.340156
4.482795
3.384789
2.626345
1.874382
1.248368
0.999500
1.062678
1.315444
1.174344
1.296079
1.201410
1.110721
1.072283
1.223438
1.240626
1.359412
1.381719
1.440206
1.416744
1.521606
1.699906
1.901934
2.319039
3.028720
3.614483
4.317034
5.047614
5.669308
1.225482
1.278879
1.522166
1.624128
1.627281
1.638677
1.764854
1.897204
2.370025
2.931409
3.634086
4.181849
5.157540
5.990038
6.675975
1.030771
0.938240
1.098515
1.107896
1.172119
1.052618
1.112808
1.332642
1.875853
2.482378
3.247346
4.114913
5.042966
5.926008
6.599911
3.565217
2.704673
1.467263
1.509730
1.202862
1.951724
2.948307
4.421995
3.011321
1.934223
5.275128
2.125443
5.417090
0.899202
1.885481
0.222729
4.073574
0.495373
1.554888
1.592208
3.000634
3.111404
2.847137
1.853181
2.938112
0.647273
1.442690
2.774456
1.796168
1.338224
2.297206
2.445657
4.095948
1.389014
3.301974
2.534454
1.229872
3.339892
2.528722
4.271218
3.430496
5.079829
4.354760
3.365522
4.625093
2.511742
4.155837
2.875426
1.794167
1.584806
2.315003
2.487486
2.306494
2.500604
3.964042
3.193139
2.421143
0.735188
3.775597
2.702643
2.417172
1.555712
2.114485
0.366997
3.153163
0.914177
2.947506
3.044876
2.244586
2.816864
1.128580
1.149700
0.719863
1.513132
1.369083
2.004164
2.662748
5.574754
4.358845
1.572603
1.301219
1.616157
1.813228
1.328452
3.396524
3.233875
2.115882
0.734868
1.267184
1.968752
1.775455
0.666637
3.112710
1.399726
2.219083
1.483175
1.395117
2.670281
3.494161
1.340385
1.409514
2.158419
3.755495
4.653258
4.625494
3.738055
3.375826
4.279512
4.312182
5.062758
2.379728
4.128305
1.851192
4.801126
3.668351
2.798408
2.827652
5.199007
4.070949
3.506978
2.449214
3.715899
0.553516
1.800709
4.898771
3.280447
3.081510
5.479268
4.126067
3.857751
1.146240
4.840714
3.421192
1.175106
0.995227
5.751447
1.757869
5.165847
1.950865
4.866719
0.814480
6.368542
1.505817
4.686678
5.206620
0.541958
1.196506
3.765649
1.931939
3.194918
4.354299
1.028909
2.719367
2.456916
5.637927
5.009573
1.139640
1.276922
4.600689
6.032038
1.248904
5.559839
1.417007
5.921892
1.382846
5.739726
1.659988
4.874152
2.234628
5.799585
5.436132
1.984609
1.764846
1.620718
1.346105
4.400397
3.943773
0.322669
2.445159
2.453264
2.234788
2.454706
4.788706
3.862439
2.135046
2.072903
7.033195
6.527971
2.412033
3.036880
4.737060
5.068820
1.871206
1.825409
7.769961
7.723694
5.770108
6.224863
1.760026
1.510397
1.336180
7.928767
8.333155
5.905379
6.581971
1.542936
1.403196
1.249534
2.337173
2.057794
2.883030
2.378503
2.224087
2.495045
1.860210
0.656938
5.715419
6.146129
5.503692
5.489556
2.140855
1.351062
3.857920
3.444006
5.366046
4.779396
4.658607
4.642993
3.132227
4.047483
5.785392
6.507790
2.115216
2.035845
4.744045
5.218509
4.306617
4.637158
3.993593
4.780377
2.069599
2.782175
6.561231
6.012022
2.648140
2.883641
3.460683
3.866093
7.039122
6.637609
6.892037
7.161298
0.796210
1.918338
6.637884
6.611429
1.757631
5.421042
6.001947
3.674350
4.496011
4.686065
5.309049
7.203966
7.550563
7.657449
8.236167
7.676637
7.386990
1.985375
1.667426
1.577152
2.117435
2.266497
2.002355
1.694088
3.596259
3.743382
2.242925
2.279031
1.867200
1.967992
2.363731
2.427669
2.284223
1.877068
2.537276
1.790036
2.092240
2.192574
1.617365
3.364817
2.898153
2.927879
2.518924
1.099046
1.168935
1.390646
2.070636
2.587762
2.333444
2.627801
2.710140
2.659601
3.900662
3.590352
2.131097
2.109858
2.288174
2.311446
2.138518
1.985810
6.528803
7.335431
1.743853
1.632068
1.747435
1.807326
3.123029
3.204482
7.619039
6.576295
8.143388
7.356492
2.020687
2.352026
2.454312
2.909312
3.182580
1.884948
2.430288
2.513904
3.173449
3.049746
1.258353
1.213583
2.882984
1.941196
2.526539
2.432969
2.054159
1.650789
1.568381
2.035170
6.057529
2.279669
2.556448
1.628215
1.486158
4.503718
4.944884
2.114772
1.902782
2.795825
3.283268
4.491622
4.437961
1.537649
1.311112
1.974263
1.646329
1.978928
2.351369
3.358147
3.130153
1.212442
1.473573
4.595156
2.248447
2.426085
4.397100
4.172135
1.431517
1.595053
3.286760
3.379273
3.671122
3.724075
2.591965
2.692000
3.313653
5.242163
1.607163
1.590885
0.566836
0.677615
5.333800
5.382871
3.087126
3.581283
3.490291
4.174803
0.223289
0.653575
4.929386
4.601898
2.983470
2.493830
2.305633
2.710725
2.284884
1.730463
3.923454
3.093042
5.905429
5.330036
5.908938
5.705707
4.017391
4.707801
2.334381
1.851523
2.255562
2.087483
1.696336
2.012166
2.608667
2.497111
4.780963
4.922753
1.111751
0.773931
1.737684
2.200677
4.474603
3.771599
3.038614
2.971178
3.120252
2.956277
3.467428
3.056702
3.217163
3.286626
1.755000
1.790793
3.934925
3.995638
4.198956
4.245876
3.172068
2.998591
3.732004
0.373283
0.826005
2.460567
2.482166
3.436587
3.438561
2.680941
3.100741
3.001922
4.489662
4.331997
2.628211
2.802692
2.563237
2.598016
2.847370
2.912489
2.256530
4.626375
4.742854
6.380482
3.619326
3.514381
6.545308
6.260946
1.683915
1.286164
0.589686
0.874137
1.274483
0.874034
2.332832
2.049432
1.309204
1.390813
4.952836
4.936081
1.288436
1.499613
1.384042
1.202365
1.599835
1.280667
5.839711
5.964666
4.786396
4.728901
2.212152
1.237917
0.946005
1.297936
1.649079
0.948146
0.964207
0.901859
0.620449
0.568471
1.279461
1.047820
1.100031
1.142826
3.574438
5.323119
1.391301
5.794766
6.561833
6.937068
7.192881
7.208763
3.207580
1.473607
2.415009
1.939404
2.983872
2.922159
2.755861
4.031432
1.593217
5.062030
4.286750
5.090615
1.161484
1.470768
3.469646
6.122431
1.340199
4.712148
6.522689
5.500675
1.034473
8.157809
1.202361
7.800620
4.792914
1.627316
6.124638
1.063375
8.376145
1.171174
7.889150
6.146416
1.216858
2.374115
2.030786
1.728348
3.718273
3.167018
2.836814
2.023196
7.161859
1.299717
5.581505
1.451254
2.863207
1.917345
3.164131
1.583285
4.632718
1.322157
4.453677
1.384391
1.564014
3.656131
1.232569
5.315059
5.536877
4.807536
1.417587
4.380357
1.516862
4.270685
1.323864
3.234031
2.074005
3.161624
4.004810
1.140371
2.263690
0.364411
5.485585
1.334904
5.885315
1.201135
7.630754
1.210320
1.753736
2.510331
1.339553
6.511689
5.788749
7.023639
1.339083
4.572402
6.871592
1.267372
7.665601
1.253443
1.127305
4.414207
7.005654
0.972023
1.134520
6.735217
1.309983
2.024004
1.703372
1.713059
2.999983
3.192104
1.957695
3.120621
1.540469
4.229970
4.446690
2.533778
1.962740
3.837295
1.920692
2.926417
2.264792
1.563697
4.686497
3.936590
1.761039
1.841069
0.707461
2.248599
6.361895
1.712242
1.867976
2.441147
1.840935
1.152440
1.705167
2.384810
2.484393
0.415982
1.332864
4.119233
2.461244
1.880260
3.665387
3.574689
3.113655
4.180353
7.973316
0.991877
3.855775
7.297978
6.317305
3.179074
1.930046
1.681613
1.023573
7.493700
0.919430
7.076421
5.109652
1.762827
1.274038
3.584800
1.286368
2.217480
1.374114
2.004725
1.629414
2.012440
8.152886
6.064263
1.046651
2.086962
2.814218
3.178243
1.654297
3.043133
2.256871
2.908325
3.110222
4.558140
4.230948
1.088847
1.640322
1.473970
3.636153
3.635691
1.756672
2.739690
5.455612
4.283834
3.091457
1.278498
2.944594
5.751709
6.050815
3.679307
5.196399
3.349109
1.633713
2.632312
3.123936
4.061787
3.810061
5.380087
2.949264
4.867716
1.074751
2.464369
2.389793
1.620243
2.828717
1.988918
1.665036
2.887022
3.056026
4.852302
5.113415
6.932766
1.736610
5.825723
1.044274
6.503247
6.651253
6.311929
3.076223
4.812354
2.113951
1.176965
2.402927
3.715068
2.979302
4.412780
1.253700
3.687171
4.997188
2.845454
3.178981
4.102798
1.285100
4.109808
3.043479
7.099147
4.148291
4.693064
3.966883
2.492796
4.300163
2.923492
4.372419
1.735695
1.820760
1.930714
1.113545
2.828193
3.085696
2.761689
4.154863
1.857503
2.380308
4.302548
1.175496
1.868695
4.284767
2.805883
5.253158
4.269278
3.683374
0.933393
6.865006
2.432022
1.707716
3.512059
1.012411
7.213528
2.230843
1.222375
3.058291
4.198002
3.252110
6.762638
4.422336
4.049926
3.504497
2.475098
3.572336
6.491497
7.709808
2.395432
6.403070
1.313286
1.973714
1.528630
1.779258
5.077623
3.132956
5.118822
1.413830
5.913304
1.788868
3.763822
3.796903
3.429902
7.517035
3.758581
3.236505
3.629275
3.067838
1.825891
5.175758
3.718945
5.490431
6.368207
4.318404
5.905523
2.605399
2.339744
3.110596
3.945612
1.451995
2.543754
3.147054
3.296641
2.201574
3.411899
1.916826
2.186947
1.567621
1.016782
5.205248
7.155878
1.158275
5.245228
2.944528
2.657628
2.541078
3.490763
2.357203
5.531938
2.905409
2.490829
3.188684
4.579471
2.307785
1.450809
5.899270
1.491720
2.174735
2.139389
3.006963
2.965962
2.922877
6.064296
5.318113
4.800688
3.722439
5.916500
3.434463
1.222903
3.313481
7.753919
5.394870
3.959644
5.811069
1.003830
3.668756
1.237806
5.116314
3.535308
2.486861
4.984617
5.184681
4.428010
7.514643
1.479722
1.168812
1.146840
1.716021
4.640508
2.731112
2.480149
6.249028
7.925448
5.134640
6.287245
3.490763
3.393605
3.096941
7.506573
5.770139
1.868290
2.740700
3.640019
4.370767
7.270759
3.812745
4.975393
3.428660
3.162211
2.071184
1.115174
6.282520
4.377937
4.481689
6.784643
6.512005
2.288517
2.933492
7.149379
3.033690
3.463959
5.539700
3.509375
5.655573
2.866535
2.869441
7.581950
1.894465
2.826217
8.090462
4.922347
4.386896
4.311300
1.367081
2.545918
2.301625
6.031849
2.101412
3.769722
1.269082
4.481372
2.785241
6.518321
3.302065
1.083945
3.644790
3.253004
1.563658
2.330034
3.431467
1.275308
0.981098
3.804632
2.631483
3.333614
5.204928
5.315392
5.876629
3.792486
4.156915
2.809041
5.155008
3.606321
6.373883
2.035134
3.841572
3.970139
2.200568
3.520498
1.149129
0.973532
3.894903
1.778768
3.259583
3.655220
7.904040
2.124777
2.867891
4.196653
3.436319
4.831049
2.513394
1.399837
1.527590
1.311440
4.468066
5.263967
4.442728
3.739387
1.435297
3.146262
1.407715
3.715130
2.735703
1.251595
2.463509
1.929804
2.680797
1.443374
3.925328
5.521299
2.652071
3.625800
4.082574
2.551362
3.680683
4.585202
4.398755
1.759179
3.079175
4.746941
5.563092
4.691069
2.100205
2.919430
3.208725
4.595624
1.815446
1.590905
3.618051
6.822159
4.557975
2.813899
3.663146
8.230329
2.499221
2.099584
1.931501
4.471792
2.150973
4.493833
1.151548
2.694817
4.667282
5.443428
2.401667
2.621593
2.967970
1.728068
4.102051
3.561846
5.325116
3.244318
2.244971
1.965079
7.309092
2.736568
1.126714
1.416647
3.227521
3.561417
4.518679
1.707648
6.421035
2.872697
5.881916
5.820557
3.092629
2.924299
3.260186
4.226477
5.398978
3.636835
5.089654
4.724308
3.481366
2.997066
4.610964
3.653966
1.910374
4.806717
3.458830
1.548288
2.412537
2.063045
1.074640
1.625428
7.314565
0.920083
1.357406
8.050674
1.769686
3.059043
2.435967
0.853857
0.526543
0.611704
3.998512
1.924460
2.148086
1.107779
2.347857
1.227432
0.944927
0.528105
1.683135
5.624920
4.202784
4.716895
2.174802
1.347257
1.209145
1.197700
1.854922
1.174710
0.804358
1.595828
3.932309
4.517701
6.240600
0.988205
0.276148
0.669358
1.076221
1.107059
0.962760
0.947649
1.227306
0.653527
1.571738
1.199008
0.804503
1.375344
0.916728
1.077124
1.386992
1.443117
0.875668
1.167449
1.198805
1.193001
1.508963
1.134181
0.796363
0.289031
0.316509
1.028757
1.028147
0.425400
0.482397
2.582980
1.354697
1.764746
0.714735
1.189185
1.696069
1.765776
0.332705
2.545505
0.680253
2.487812
1.183267
2.769676
0.756378
1.039584
1.475817
1.093645
1.603800
2.623094
1.397734
1.148294
0.952134
1.400677
1.784515
5.002313
6.334008
5.343009
4.108373
4.080149
4.604361
3.335770
6.063846
3.487613
5.971399
4.878676
2.850983
1.983876
2.790906
1.934617
0.746732
4.056190
2.543113
1.856749
1.394040
0.727184
2.546073
1.450073
0.521146
1.070836
1.191566
1.613798
1.823539
1.331419
1.814006
1.646413
1.490176
1.445526
1.771139
1.433883
1.362573
2.557159
2.089781
1.319189
1.495768
2.394924
1.060112
1.421894
1.999468
1.118013
1.394834
2.423914
1.229224
1.287964
0.407748
1.199739
5.207382
5.740106
5.247346
5.080349
1.284059
1.420719
1.298399
1.264525
1.181639
1.699063
1.297717
1.684042
1.547379
2.096199
3.835254
1.474306
1.522873
0.693657
2.536768
2.206628
1.326566
3.200980
1.147483
1.337551
2.470458
3.990258
3.555349
2.526109
3.040764
2.825241
2.412737
0.614268
2.675358
2.333880
3.589007
1.390543
0.769884
0.834896
0.471720
1.400427
1.413248
2.190151
2.433442
2.188569
1.609215
1.321393
1.463332
1.116954
1.896413
1.201089
4.544495
3.202281
3.329978
4.036360
3.719074
4.232010
2.325715
1.114447
2.271345
3.468137
1.664439
1.812240
2.256753
2.388496
4.850329
1.136258
1.158002
0.584982
0.178555
1.291308
1.299843
1.255452
2.532108
1.169096
5.086284
2.562741
4.215474
1.461606
1.261376
2.487821
2.427417
2.780568
1.105970
1.978468
1.672963
0.407069
0.649372
1.881602
1.417185
4.150666
1.168112
2.029565
0.883022
0.903953
0.680050
2.391974
0.784640
0.574806
0.208479
0.705987
0.383166
0.725810
1.167153
3.130228
3.635985
3.308794
0.288163
4.845435
1.037185
0.919081
1.108477
1.070223
0.963030
0.860419
2.603724
3.843632
2.243550
1.641634
1.937004
1.442668
0.788575
1.035550
1.123105
0.889742
1.391522
1.008688
2.959570
3.355844
1.561896
1.530524
0.854464
1.143357
1.602737
2.778050
2.917276
1.668452
4.764898
1.761870
0.909689
4.914727
1.040333
6.145576
6.900735
5.841216
5.196249
5.242113
5.647669
3.964369
4.587585
1.027808
0.945328
0.944457
1.108469
1.063253
1.085942
1.052756
0.766885
0.971625
1.883363
5.518217
2.287076
1.845602
2.069385
3.152291
3.110218
3.028117
3.214650
3.404448
2.127187
1.775346
3.172744
2.231803
3.284619
3.194439
4.268601
4.669623
2.052195
2.212085
3.208845
4.587090
1.795945
3.207954
2.026305
1.461005
3.025149
2.988114
3.302984
3.237980
3.848976
3.207478
3.956272
2.705911
3.175925
3.064712
2.554156
4.278748
4.022049
1.365829
3.874667
1.097996
0.565978
0.717402
0.955334
0.981577
1.393280
0.979967
1.182552
0.956430
0.519355
1.885391
1.473570
0.712517
0.882767
1.409192
0.895828
0.903757
3.946777
2.120315
1.460848
2.154190
0.810324
1.465675
1.132395
1.246698
0.653999
0.361792
2.010619
2.321808
2.552492
1.818890
1.303368
0.873739
1.114447
0.846997
0.637821
1.828564
2.039770
1.307808
1.126347
1.355748
1.434091
0.982185
3.951912
3.450475
2.833555
3.200746
2.606114
2.124017
1.647404
1.156040
0.873314
1.416083
1.115707
1.090186
0.984067
4.324820
3.323304
4.132337
5.384685
2.018513
1.315119
1.692817
1.745584
2.631299
1.911213
2.371586
1.731914
1.947521
4.318787
3.606959
3.598197
2.100194
2.280148
1.696098
1.535767
1.559011
1.705010
1.800469
2.185567
1.638490
1.357307
1.262258
1.256563
2.981510
3.712957
3.834628
2.481881
3.095693
3.562547
2.580160
2.047217
2.563708
1.303383
6.284161
5.674418
0.787927
3.122739
1.537573
1.373066
1.781651
2.063600
2.143696
0.962004
5.374938
4.664954
4.729852
4.377364
2.352650
1.271214
1.347677
1.369940
1.048298
3.803655
3.087953
2.666442
2.634280
2.094186
1.926278
2.504248
2.988831
3.132562
4.746296
0.989719
3.438733
3.161533
2.395048
1.880097
1.396597
1.066963
0.912163
0.828500
2.514315
2.097803
4.363878
1.826861
4.342603
2.936265
3.473232
0.932366
1.157611
1.188975
2.568881
1.958772
2.211347
3.514744
2.427678
2.006178
5.210301
1.203455
1.467352
0.986466
0.944076
4.499667
1.904880
1.494295
2.065852
2.315228
1.865295
1.596219
1.748984
1.254023
3.704388
4.006041
3.660311
3.361971
1.590650
2.665512
2.402549
2.911663
4.748744
3.231935
6.086058
0.906774
3.189065
4.646194
4.033124
4.079905
3.092341
2.390934
3.507340
2.255749
2.432254
5.017041
4.443439
1.028618
0.933484
0.699915
0.992435
0.839705
0.771848
3.555948
1.536219
1.469465
1.433378
3.488178
2.246209
3.728598
2.733416
2.326298
2.299479
2.477272
2.421108
1.834057
2.177913
2.455256
1.826750
1.661626
1.325273
1.185091
0.971651
1.607678
2.538809
4.152472
1.043143
0.969034
0.765434
2.388436
2.490611
1.334838
2.193018
2.825156
1.679442
2.746209
2.096529
3.057446
3.648942
2.593154
1.952458
2.928531
4.861409
5.870890
4.662102
4.110869
2.747827
2.710279
2.786652
4.264975
3.607232
2.646482
3.579885
1.653414
1.472241
2.644515
2.327348
2.394236
1.748571
2.925465
4.300358
4.795092
3.713569
1.402708
1.078132
1.564143
1.761082
1.130751
0.917237
1.150285
1.156222
2.551222
3.098204
2.542104
4.178025
3.177792
2.506373
2.870146
2.729478
3.386706
1.565531
3.661506
1.681021
1.326320
6.140569
1.699881
1.492576
2.673329
2.177417
4.933092
2.703736
2.055146
1.066179
1.924122
1.550440
2.501857
1.844858
3.913745
3.375435
2.315362
2.257780
1.759875
2.359043
3.011009
2.532156
3.158650
2.547745
1.841818
0.770998
0.881029
0.551310
1.969783
1.255383
1.322561
3.826657
3.192355
1.874694
4.343573
3.886443
6.530858
5.003304
2.871310
2.163958
1.712078
3.151775
2.879575
3.898581
2.111971
2.262126
1.953964
2.106854
4.204876
1.632294
1.005720
4.822860
4.926788
4.224604
3.596276
3.047970
2.022396
2.360896
2.181037
2.092053
2.125970
2.080601
2.268967
1.022921
0.890733
1.118490
2.202617
0.911406
3.090215
3.011411
2.428440
4.612277
3.063633
1.175431
1.143923
1.137715
0.774930
1.790813
2.211946
2.076137
1.977740
1.034817
4.446871
4.941069
4.004654
4.048964
0.860550
1.232540
0.927285
2.251452
2.504015
1.445873
1.017388
0.858244
0.945377
0.900130
2.419134
1.796342
2.416687
2.228887
1.561427
3.134619
2.258371
1.947929
1.420434
3.169964
2.516640
1.796845
2.599070
5.410218
4.845931
2.427858
3.283693
2.490587
2.101081
1.298772
2.717030
4.493525
3.497671
2.851065
2.910369
1.602332
1.720002
2.013498
1.451745
4.737475
5.031764
1.064463
1.065868
1.106424
1.041914
1.440491
1.531780
3.760024
1.246554
0.980666
2.025600
1.711107
2.323019
2.644734
2.502355
1.813059
1.759927
1.380253
3.413372
3.486637
4.140779
3.190195
2.861499
1.414508
0.511189
0.936132
0.421211
0.617086
0.381817
0.358214
0.630735
0.361968
0.982349
0.934511
0.546010
0.833408
0.432391
1.878088
1.501896
1.791326
2.086160
1.944699
1.933667
0.172504
0.989887
0.186314
0.488296
0.861400
0.519039
0.490069
0.558525
0.889506
0.903902
1.229626
1.663625
1.341355
1.934140
0.772659
0.834902
0.877439
0.443986
0.830982
0.440331
0.182517
0.224401
0.033145
1.225911
0.826654
1.773195
1.142493
0.661388
0.623480
0.807791
0.836163
2.369841
0.796948
0.206425
0.189937
0.336599
2.204497
1.152102
1.640041
0.197153
0.430523
2.421090
0.596994
0.464500
0.809484
0.905540
0.546260
0.507308
2.451759
1.201732
2.496236
0.896720
1.768786
1.031834
0.358236
0.562839
2.540318
1.873318
1.666581
1.399994
1.556800
2.039411
1.880446
2.379549
1.987975
3.024075
2.667481
3.338844
2.432216
2.673441
3.297288
2.864308
2.291032
2.381628
