# vtk DataFile Version 2.0
Unstructured Grid Example
ASCII
DATASET UNSTRUCTURED_GRID
POINTS 2044 float
0.979020 0.010529 -0.023050 
0.008112 0.982599 -0.021400 
-1.021260 0.007344 0.025629 
0.009986 -1.019959 0.025302 
0.004210 0.003132 1.000278 
0.972615 -0.087617 -0.028224 
0.956752 -0.186156 -0.031724 
0.932287 -0.282835 -0.033294 
0.900458 -0.376105 -0.031081 
0.861310 -0.466476 -0.027277 
0.814595 -0.554570 -0.020279 
0.759551 -0.636741 -0.011763 
0.697497 -0.714955 -0.002350 
0.630125 -0.785009 0.007315 
0.555228 -0.847523 0.016046 
0.473490 -0.900330 0.023008 
0.387642 -0.944086 0.028483 
0.297735 -0.979745 0.032553 
0.203714 -1.005075 0.033447 
0.107601 -1.018438 0.030581 
-0.086764 -1.011781 0.018334 
-0.182729 -0.993061 0.009624 
-0.277832 -0.964643 0.000783 
-0.370631 -0.927825 -0.007567 
-0.458270 -0.879139 -0.018287 
-0.542788 -0.825021 -0.023564 
-0.622758 -0.764777 -0.027177 
-0.697355 -0.695891 -0.027497 
-0.765911 -0.623140 -0.026056 
-0.826583 -0.543886 -0.022220 
-0.880744 -0.460254 -0.015280 
-0.927736 -0.372313 -0.007333 
-0.966352 -0.280353 0.001513 
-0.994497 -0.185992 0.010829 
-1.012938 -0.090128 0.018715 
-1.019830 0.104630 0.030550 
-1.007314 0.201055 0.033183 
-0.983274 0.295106 0.032455 
-0.948109 0.386610 0.029349 
-0.904038 0.471855 0.024995 
-0.849640 0.552242 0.016272 
-0.787992 0.627639 0.007959 
-0.717320 0.695401 -0.001841 
-0.640526 0.757639 -0.011093 
-0.557875 0.812880 -0.020146 
-0.470711 0.860339 -0.027969 
-0.378870 0.901389 -0.031376 
-0.285195 0.933660 -0.032376 
-0.189183 0.959420 -0.030861 
-0.090996 0.974699 -0.027691 
0.106945 0.980564 -0.015766 
0.205017 0.969783 -0.007919 
0.300599 0.949861 -0.000190 
0.393671 0.920341 0.007358 
0.483320 0.882711 0.015578 
0.567700 0.835915 0.021242 
0.645354 0.780735 0.024672 
0.717249 0.716073 0.026359 
0.779962 0.645827 0.024950 
0.836254 0.566996 0.020603 
0.883125 0.482666 0.015052 
0.921197 0.393584 0.008430 
0.948645 0.301127 0.000430 
0.966909 0.205569 -0.008216 
0.977492 0.108230 -0.016022 
0.978432 0.007044 0.075370 
0.967592 0.003853 0.173753 
0.947309 0.002351 0.271426 
0.918295 0.002191 0.367757 
0.879004 0.001003 0.459301 
0.831151 0.000122 0.546668 
0.775268 -0.000956 0.628990 
0.710783 -0.001148 0.704326 
0.639351 -0.000887 0.773391 
0.561407 -0.000777 0.833570 
0.476485 -0.000192 0.884206 
0.387938 0.000344 0.927075 
0.295042 0.001394 0.959774 
0.199472 0.002024 0.982925 
0.102199 0.002423 0.996802 
0.004402 0.101589 0.996477 
0.003884 0.199322 0.982118 
0.003975 0.295222 0.958192 
0.003494 0.388166 0.924808 
0.003436 0.477295 0.882433 
0.003059 0.561491 0.830508 
0.001938 0.640209 0.769174 
0.001702 0.712141 0.701021 
0.001301 0.776117 0.626005 
0.000959 0.832065 0.544606 
0.001311 0.879577 0.457255 
0.001528 0.918861 0.366325 
0.002395 0.948812 0.271598 
0.003551 0.969172 0.174401 
0.005363 0.980182 0.076287 
-0.093459 0.003327 0.993743 
-0.190231 0.002693 0.978320 
-0.284549 0.002581 0.953365 
-0.376082 0.003104 0.921356 
-0.463927 0.001932 0.881381 
-0.548156 0.001533 0.833295 
-0.626893 0.001610 0.776403 
-0.700660 0.001389 0.713256 
-0.769640 0.001829 0.644985 
-0.830733 0.001776 0.569369 
-0.884466 0.001571 0.488408 
-0.929012 0.001389 0.401834 
-0.966733 0.002292 0.312639 
-0.994782 0.002425 0.219763 
-1.013708 0.004349 0.123409 
0.003757 -0.094971 0.994404 
0.002887 -0.191909 0.979591 
0.002632 -0.286297 0.954835 
0.002245 -0.378285 0.922051 
0.001877 -0.466564 0.879883 
0.001261 -0.550731 0.831609 
0.000787 -0.629795 0.775502 
0.000164 -0.702912 0.711850 
-0.000113 -0.770659 0.642992 
0.000449 -0.830963 0.567349 
0.000399 -0.884104 0.486670 
0.001600 -0.929157 0.401447 
0.004227 -0.966572 0.311822 
0.006398 -0.994100 0.219071 
0.007808 -1.012331 0.123097 
0.771751 0.445776 0.475057 
0.342160 0.376158 0.875591 
0.340047 0.863438 0.380751 
0.889523 0.323832 0.322008 
0.928323 0.270294 0.239884 
0.947509 0.209315 0.209234 
0.961268 0.202084 0.125416 
0.522414 0.794862 0.341196 
0.523552 0.320667 0.805866 
0.278361 0.683333 0.687559 
0.727432 0.633111 0.310763 
0.726983 0.285014 0.637724 
0.758209 0.634581 0.213040 
0.762722 0.182461 0.626325 
0.211586 0.538056 0.826839 
0.209663 0.820192 0.534131 
0.839073 0.508944 0.230182 
0.828615 0.207109 0.521295 
0.139519 0.421838 0.903519 
0.137324 0.896377 0.410517 
0.403703 0.756913 0.531812 
0.406004 0.519751 0.768913 
0.430408 0.892732 0.165884 
0.428412 0.154119 0.899991 
0.889327 0.434590 0.167900 
0.888450 0.177584 0.416699 
0.094911 0.348742 0.938403 
0.093294 0.929853 0.332087 
0.289651 0.947662 0.112531 
0.286715 0.114148 0.957212 
0.931097 0.351729 0.094077 
0.926092 0.095265 0.340506 
0.567501 0.584681 0.602785 
0.088795 0.283746 0.960030 
0.087533 0.949786 0.265594 
0.232084 0.962432 0.080327 
0.228913 0.087555 0.974309 
0.956648 0.112426 0.220377 
0.952592 0.274686 0.070671 
0.972867 0.102502 0.123699 
0.655290 0.426069 0.642517 
0.655995 0.629280 0.451104 
0.526318 0.720729 0.477382 
0.527736 0.456918 0.734052 
0.766496 0.551096 0.365054 
0.761974 0.345584 0.563461 
0.708831 0.502058 0.521087 
0.385879 0.649372 0.671544 
0.332828 0.186409 0.933377 
0.333859 0.923073 0.189526 
0.395141 0.879066 0.282864 
0.395189 0.273767 0.890073 
0.335089 0.727661 0.612949 
0.336265 0.605476 0.735992 
0.469869 0.775713 0.446868 
0.471456 0.429193 0.787655 
0.276430 0.470676 0.851324 
0.273690 0.841082 0.470826 
0.482207 0.845665 0.262586 
0.481923 0.246005 0.855775 
0.307192 0.537721 0.798993 
0.305107 0.789985 0.541756 
0.233867 0.410335 0.892707 
0.231255 0.882628 0.406272 
0.845075 0.435639 0.326163 
0.860808 0.270788 0.433990 
0.433980 0.348908 0.846470 
0.432539 0.833776 0.362067 
0.372977 0.816021 0.454810 
0.375613 0.445965 0.827761 
0.105573 0.576998 0.815764 
0.104526 0.814353 0.567143 
0.209632 0.760651 0.619891 
0.210005 0.621911 0.763825 
0.080633 0.493390 0.872359 
0.078024 0.867471 0.479353 
0.648831 0.300750 0.714026 
0.649647 0.706451 0.328214 
0.509131 0.865625 0.091953 
0.504899 0.073493 0.868180 
0.183248 0.915256 0.347177 
0.184746 0.355519 0.924306 
0.224581 0.951496 0.183840 
0.223576 0.191019 0.961689 
0.435469 0.682408 0.606207 
0.423960 0.577451 0.715928 
0.268902 0.297291 0.926988 
0.267574 0.915891 0.295255 
0.923623 0.203720 0.307703 
0.913697 0.353405 0.204073 
0.175369 0.488699 0.864307 
0.172763 0.857281 0.481512 
0.434152 0.902561 0.068561 
0.429683 0.057225 0.907841 
0.364254 0.927360 0.090662 
0.360720 0.085381 0.935871 
0.064196 0.427078 0.907474 
0.062036 0.901509 0.409954 
0.114415 0.965206 0.184398 
0.114394 0.201166 0.977947 
0.161250 0.280348 0.952677 
0.160509 0.942482 0.268865 
0.614396 0.498362 0.631359 
0.615122 0.616006 0.520827 
0.551967 0.662065 0.536081 
0.551949 0.514881 0.676139 
0.736485 0.423528 0.547254 
0.743718 0.522280 0.442914 
0.645730 0.542547 0.562132 
0.564560 0.801283 0.252544 
0.562913 0.228928 0.807566 
0.811200 0.506088 0.322392 
0.812346 0.308349 0.507336 
0.680581 0.573049 0.486285 
0.679926 0.463222 0.589056 
0.783828 0.379031 0.508954 
0.707359 0.382191 0.610062 
0.709591 0.600654 0.407917 
0.482582 0.710757 0.536299 
0.483562 0.518519 0.724417 
0.832850 0.373888 0.422052 
0.796572 0.474379 0.394950 
0.893477 0.240215 0.374051 
0.944639 0.270609 0.155351 
0.573536 0.733899 0.397245 
0.574128 0.373706 0.746381 
0.651301 0.367051 0.680831 
0.652951 0.670217 0.394049 
0.508760 0.646773 0.591795 
0.481620 0.599741 0.660772 
0.175591 0.700905 0.698928 
0.596778 0.673786 0.465547 
0.597237 0.441468 0.687493 
0.097432 0.670089 0.741415 
0.097889 0.744241 0.663634 
0.689576 0.700333 0.248603 
0.688216 0.220428 0.701868 
0.978766 0.090748 0.046582 
0.538364 0.153226 0.839615 
0.541026 0.835905 0.175030 
0.746160 0.083296 0.664772 
0.749603 0.674481 0.113750 
0.784634 0.266559 0.569603 
0.786249 0.569901 0.278669 
0.807823 0.593976 0.134200 
0.803019 0.093907 0.587651 
0.141993 0.093451 0.989416 
0.144366 0.975152 0.078501 
0.895995 0.078313 0.421400 
0.898333 0.439931 0.085919 
0.862920 0.510291 0.110211 
0.858284 0.094714 0.497818 
0.877104 0.416846 0.251710 
0.612412 0.262502 0.759553 
0.613748 0.753823 0.289719 
0.067362 0.982314 0.042707 
0.064753 0.063589 0.998236 
0.065997 0.132067 0.992693 
0.066751 0.977478 0.111421 
0.679472 0.746594 0.101374 
0.675619 0.073716 0.740668 
0.598492 0.810587 0.099507 
0.594152 0.074736 0.808743 
0.716241 0.697951 0.166806 
0.714625 0.138349 0.694642 
0.631558 0.769203 0.191747 
0.628911 0.164443 0.769642 
0.800038 0.579385 0.214990 
-0.438197 0.465298 0.765317 
-0.370689 0.856128 0.312158 
-0.871117 0.376054 0.363115 
-0.324491 0.327226 0.885635 
-0.246413 0.283716 0.924198 
-0.208552 0.210381 0.952785 
-0.155765 0.137606 0.977142 
-0.317099 0.791669 0.498628 
-0.792260 0.324533 0.537566 
-0.680611 0.678641 0.277070 
-0.281922 0.634397 0.714197 
-0.621449 0.291390 0.730995 
-0.179813 0.628700 0.752915 
-0.632801 0.192684 0.752491 
-0.532134 0.809176 0.189091 
-0.827423 0.534874 0.225830 
-0.201898 0.526444 0.824221 
-0.487970 0.222654 0.842276 
-0.414964 0.883231 0.106553 
-0.914417 0.421559 0.162496 
-0.755700 0.520685 0.414295 
-0.514638 0.753741 0.389204 
-0.150511 0.888122 0.401805 
-0.897903 0.157150 0.446873 
-0.157017 0.446764 0.880722 
-0.414347 0.165706 0.891910 
-0.340827 0.916118 0.059616 
-0.954774 0.348093 0.121811 
-0.109263 0.941591 0.257771 
-0.964077 0.115708 0.309759 
-0.343450 0.095711 0.929790 
-0.087105 0.359227 0.929706 
-0.579577 0.588352 0.563539 
-0.275388 0.937113 0.053028 
-0.978725 0.283929 0.117545 
-0.082045 0.958285 0.199916 
-0.984785 0.088536 0.252617 
-0.227212 0.112760 0.964245 
-0.103464 0.228940 0.967450 
-0.151700 0.063310 0.984602 
-0.422450 0.632216 0.643268 
-0.621126 0.433059 0.657283 
-0.452040 0.721266 0.512109 
-0.715867 0.461329 0.534684 
-0.539989 0.349903 0.767097 
-0.340503 0.559076 0.750870 
-0.495922 0.508238 0.703064 
-0.645356 0.659798 0.382915 
-0.182420 0.917657 0.302757 
-0.936003 0.188618 0.355698 
-0.268724 0.873066 0.365815 
-0.885751 0.275966 0.415971 
-0.598994 0.722429 0.325364 
[...]
POINT_DATA 2044
SCALARS u float 1
LOOKUP_TABLE default
6.921934
6.049074
7.174612
7.098606
1.105577
7.912166
8.582330
8.856358
8.304585
7.267568
5.554847
3.793157
2.656960
3.090057
4.776188
6.215241
7.421432
8.508332
8.884553
8.330862
5.716530
4.187683
3.085193
3.107084
4.772251
5.801334
6.456839
6.576548
6.155713
5.381227
3.986744
2.792850
2.896391
4.144775
5.675619
8.375107
9.026372
8.851931
8.050089
7.022924
5.179578
3.841850
3.291537
4.191921
5.787965
7.434578
8.161883
8.458362
7.994566
7.396370
4.898564
3.535148
2.632344
2.880267
4.130874
5.230882
5.908249
6.234616
5.956911
5.058126
3.964424
2.953826
2.873785
4.046416
5.462532
6.109542
5.340156
4.482795
3.384789
2.626345
1.874382
1.248368
0.999500
1.062678
1.315444
1.174344
1.296079
1.201410
1.110721
1.072283
1.223438
1.240626
1.359412
1.381719
1.440206
1.416744
1.521606
1.699906
1.901934
2.319039
3.028720
3.614483
4.317034
5.047614
5.669308
1.225482
1.278879
1.522166
1.624128
1.627281
1.638677
1.764854
1.897204
2.370025
2.931409
3.634086
4.181849
5.157540
5.990038
6.675975
1.030771
0.938240
1.098515
1.107896
1.172119
1.052618
1.112808
1.332642
1.875853
2.482378
3.247346
4.114913
5.042966
5.926008
6.599911
3.565217
2.704673
1.467263
1.509730
1.202862
1.951724
2.948307
4.421995
3.011321
1.934223
5.275128
2.125443
5.417090
0.899202
1.885481
0.222729
4.073574
0.495373
1.554888
1.592208
3.000634
3.111404
2.847137
1.853181
2.938112
0.647273
1.442690
2.774456
1.796168
1.338224
2.297206
2.445657
4.095948
1.389014
3.301974
2.534454
1.229872
3.339892
2.528722
4.271218
3.430496
5.079829
4.354760
3.365522
4.625093
2.511742
4.155837
2.875426
1.794167
1.584806
2.315003
2.487486
2.306494
2.500604
3.964042
3.193139
2.421143
0.735188
3.775597
2.702643
2.417172
1.555712
2.114485
0.366997
3.153163
0.914177
2.947506
3.044876
2.244586
2.816864
1.128580
1.149700
0.719863
1.513132
1.369083
2.004164
2.662748
5.574754
4.358845
1.572603
1.301219
1.616157
1.813228
1.328452
3.396524
3.233875
2.115882
0.734868
1.267184
1.968752
1.775455
0.666637
3.112710
1.399726
2.219083
1.483175
1.395117
2.670281
3.494161
1.340385
1.409514
2.158419
3.755495
4.653258
4.625494
3.738055
3.375826
4.279512
4.312182
5.062758
2.379728
4.128305
1.851192
4.801126
3.668351
2.798408
2.827652
5.199007
4.070949
3.506978
2.449214
3.715899
0.553516
1.800709
4.898771
3.280447
3.081510
5.479268
4.126067
3.857751
1.146240
4.840714
3.421192
1.175106
0.995227
5.751447
1.757869
5.165847
1.950865
4.866719
0.814480
6.368542
1.505817
4.686678
5.206620
0.541958
1.196506
3.765649
1.931939
3.194918
4.354299
1.028909
2.719367
2.456916
5.637927
5.009573
1.139640
1.276922
4.600689
6.032038
1.248904
5.559839
1.417007
5.921892
1.382846
5.739726
1.659988
4.874152
2.234628
5.799585
5.436132
1.984609
1.764846
1.620718
1.346105
4.400397
3.943773
0.322669
2.445159
2.453264
2.234788
2.454706
4.788706
3.862439
2.135046
2.072903
7.033195
6.527971
2.412033
3.036880
4.737060
5.068820
1.871206
1.825409
7.769961
7.723694
5.770108
6.224863
1.760026
1.510397
1.336180
7.928767
8.333155
5.905379
6.581971
1.542936
1.403196
1.249534
2.337173
2.057794
2.883030
2.378503
2.224087
2.495045
1.860210
0.656938
5.715419
6.146129
5.503692
5.489556
2.140855
1.351062
3.857920
3.444006
5.366046
4.779396
4.658607
4.642993
3.132227
4.047483
5.785392
6.507790
2.115216
2.035845
4.744045
5.218509
4.306617
4.637158
3.993593
4.780377
2.069599
2.782175
6.561231
6.012022
2.648140
2.883641
3.460683
3.866093
7.039122
6.637609
6.892037
7.161298
0.796210
1.918338
6.637884
6.611429
1.757631
5.421042
6.001947
3.674350
4.496011
4.686065
5.309049
7.203966
7.550563
7.657449
8.236167
7.676637
7.386990
1.985375
1.667426
1.577152
2.117435
2.266497
2.002355
1.694088
3.596259
3.743382
2.242925
2.279031
1.867200
1.967992
2.363731
2.427669
2.284223
1.877068
2.537276
1.790036
2.092240
2.192574
1.617365
3.364817
2.898153
2.927879
2.518924
1.099046
1.168935
1.390646
2.070636
2.587762
2.333444
2.627801
2.710140
2.659601
3.900662
3.590352
2.131097
2.109858
2.288174
2.311446
2.138518
1.985810
6.528803
7.335431
1.743853
1.632068
1.747435
1.807326
3.123029
3.204482
7.619039
6.576295
8.143388
7.356492
2.020687
2.352026
2.454312
2.909312
3.182580
1.884948
2.430288
2.513904
3.173449
3.049746
1.258353
1.213583
2.882984
1.941196
2.526539
2.432969
2.054159
1.650789
1.568381
2.035170
6.057529
2.279669
2.556448
1.628215
1.486158
4.503718
4.944884
2.114772
1.902782
2.795825
3.283268
4.491622
4.437961
1.537649
1.311112
1.974263
1.646329
1.978928
2.351369
3.358147
3.130153
1.212442
1.473573
4.595156
2.248447
2.426085
4.397100
4.172135
1.431517
1.595053
3.286760
3.379273
3.671122
3.724075
2.591965
2.692000
3.313653
5.242163
1.607163
1.590885
0.566836
0.677615
5.333800
5.382871
3.087126
3.581283
3.490291
4.174803
0.223289
0.653575
4.929386
4.601898
2.983470
2.493830
2.305633
2.710725
2.284884
1.730463
3.923454
3.093042
5.905429
5.330036
5.908938
5.705707
4.017391
4.707801
2.334381
1.851523
2.255562
2.087483
1.696336
2.012166
2.608667
2.497111
4.780963
4.922753
1.111751
0.773931
1.737684
2.200677
4.474603
3.771599
3.038614
2.971178
3.120252
2.956277
3.467428
3.056702
3.217163
3.286626
1.755000
1.790793
3.934925
3.995638
4.198956
4.245876
3.172068
2.998591
3.732004
0.373283
0.826005
2.460567
2.482166
3.436587
3.438561
2.680941
3.100741
3.001922
4.489662
4.331997
2.628211
2.802692
2.563237
2.598016
2.847370
2.912489
2.256530
4.626375
4.742854
6.380482
3.619326
3.514381
6.545308
6.260946
1.683915
1.286164
0.589686
0.874137
1.274483
0.874034
2.332832
2.049432
1.309204
1.390813
4.952836
4.936081
1.288436
1.499613
1.384042
1.202365
1.599835
1.280667
5.839711
5.964666
4.786396
4.728901
2.212152
1.237917
0.946005
1.297936
1.649079
0.948146
0.964207
0.901859
0.620449
0.568471
1.279461
1.047820
1.100031
1.142826
3.574438
5.323119
1.391301
5.794766
6.561833
6.937068
7.192881
7.208763
3.207580
1.473607
2.415009
1.939404
2.983872
2.922159
2.755861
4.031432
1.593217
5.062030
4.286750
5.090615
1.161484
1.470768
3.469646
6.122431
1.340199
4.712148
6.522689
5.500675
1.034473
8.157809
1.202361
7.800620
4.792914
1.627316
6.124638
1.063375
8.376145
1.171174
7.889150
6.146416
1.216858
2.374115
2.030786
1.728348
3.718273
3.167018
2.836814
2.023196
7.161859
1.299717
5.581505
1.451254
2.863207
1.917345
3.164131
1.583285
4.632718
1.322157
4.453677
1.384391
1.564014
3.656131
1.232569
5.315059
5.536877
4.807536
1.417587
4.380357
1.516862
4.270685
1.323864
3.234031
2.074005
3.161624
4.004810
1.140371
2.263690
0.364411
5.485585
1.334904
5.885315
1.201135
7.630754
1.210320
1.753736
2.510331
1.339553
6.511689
5.788749
7.023639
1.339083
4.572402
6.871592
1.267372
7.665601
1.253443
1.127305
4.414207
7.005654
0.972023
1.134520
6.735217
1.309983
2.024004
1.703372
1.713059
2.999983
3.192104
1.957695
3.120621
1.540469
4.229970
4.446690
2.533778
1.962740
3.837295
1.920692
2.926417
2.264792
1.563697
4.686497
3.936590
1.761039
1.841069
0.707461
2.248599
6.361895
1.712242
1.867976
2.441147
1.840935
1.152440
1.705167
2.384810
2.484393
0.415982
1.332864
4.119233
2.461244
1.880260
3.665387
3.574689
3.113655
4.180353
7.973316
0.991877
3.855775
7.297978
6.317305
3.179074
1.930046
1.681613
1.023573
7.493700
0.919430
7.076421
5.109652
1.762827
1.274038
3.584800
1.286368
2.217480
1.374114
2.004725
1.629414
2.012440
8.152886
6.064263
1.046651
2.086962
2.814218
3.178243
1.654297
3.043133
2.256871
2.908325
3.110222
4.558140
4.230948
1.088847
1.640322
1.473970
3.636153
3.635691
1.756672
2.739690
5.455612
4.283834
3.091457
1.278498
2.944594
5.751709
6.050815
3.679307
5.196399
3.349109
1.633713
2.632312
3.123936
4.061787
3.810061
5.380087
2.949264
4.867716
1.074751
2.464369
2.389793
1.620243
2.828717
1.988918
1.665036
2.887022
3.056026
4.852302
5.113415
6.932766
1.736610
5.825723
1.044274
6.503247
6.651253
6.311929
3.076223
4.812354
2.113951
1.176965
2.402927
3.715068
2.979302
4.412780
1.253700
3.687171
4.997188
2.845454
3.178981
4.102798
1.285100
4.109808
3.043479
7.099147
4.148291
4.693064
3.966883
2.492796
4.300163
2.923492
4.372419
1.735695
1.820760
1.930714
1.113545
2.828193
3.085696
2.761689
4.154863
1.857503
2.380308
4.302548
1.175496
1.868695
4.284767
2.805883
5.253158
4.269278
3.683374
0.933393
6.865006
2.432022
1.707716
3.512059
1.012411
7.213528
2.230843
1.222375
3.058291
4.198002
3.252110
6.762638
4.422336
4.049926
3.504497
2.475098
3.572336
6.491497
7.709808
2.395432
6.403070
1.313286
1.973714
1.528630
1.779258
5.077623
3.132956
5.118822
1.413830
5.913304
1.788868
3.763822
3.796903
3.429902
7.517035
3.758581
3.236505
3.629275
3.067838
1.825891
5.175758
3.718945
5.490431
6.368207
4.318404
5.905523
2.605399
2.339744
3.110596
3.945612
1.451995
2.543754
3.147054
3.296641
2.201574
3.411899
1.916826
2.186947
1.567621
1.016782
5.205248
7.155878
1.158275
5.245228
2.944528
2.657628
2.541078
3.490763
2.357203
5.531938
2.905409
2.490829
3.188684
4.579471
2.307785
1.450809
5.899270
1.491720
2.174735
2.139389
3.006963
2.965962
2.922877
6.064296
5.318113
4.800688
3.722439
5.916500
3.434463
1.222903
3.313481
7.753919
5.394870
3.959644
5.811069
1.003830
3.668756
1.237806
5.116314
3.535308
2.486861
4.984617
5.184681
4.428010
7.514643
1.479722
1.168812
1.146840
1.716021
4.640508
2.731112
2.480149
6.249028
7.925448
5.134640
6.287245
3.490763
3.393605
3.096941
7.506573
5.770139
1.868290
2.740700
3.640019
4.370767
7.270759
3.812745
4.975393
3.428660
3.162211
2.071184
1.115174
6.282520
4.377937
4.481689
6.784643
6.512005
2.288517
2.933492
7.149379
3.033690
3.463959
5.539700
3.509375
5.655573
2.866535
2.869441
7.581950
1.894465
2.826217
8.090462
4.922347
4.386896
4.311300
1.367081
2.545918
2.301625
6.031849
2.101412
3.769722
1.269082
4.481372
2.785241
6.518321
3.302065
1.083945
3.644790
3.253004
1.563658
2.330034
3.431467
1.275308
0.981098
3.804632
2.631483
3.333614
5.204928
5.315392
5.876629
3.792486
4.156915
2.809041
5.155008
3.606321
6.373883
2.035134
3.841572
3.970139
2.200568
3.520498
1.149129
0.973532
3.894903
1.778768
3.259583
3.655220
7.904040
2.124777
2.867891
4.196653
3.436319
4.831049
2.513394
1.399837
1.527590
1.311440
4.468066
5.263967
4.442728
3.739387
1.435297
3.146262
1.407715
3.715130
2.735703
1.251595
2.463509
1.929804
2.680797
1.443374
3.925328
5.521299
2.652071
3.625800
4.082574
2.551362
3.680683
4.585202
4.398755
1.759179
3.079175
4.746941
5.563092
4.691069
2.100205
2.919430
3.208725
4.595624
1.815446
1.590905
3.618051
6.822159
4.557975
2.813899
3.663146
8.230329
2.499221
2.099584
1.931501
4.471792
2.150973
4.493833
1.151548
2.694817
4.667282
5.443428
2.401667
2.621593
2.967970
1.728068
4.102051
3.561846
5.325116
3.244318
2.244971
1.965079
7.309092
2.736568
1.126714
1.416647
3.227521
3.561417
4.518679
1.707648
6.421035
2.872697
5.881916
5.820557
3.092629
2.924299
3.260186
4.226477
5.398978
3.636835
5.089654
4.724308
3.481366
2.997066
4.610964
3.653966
1.910374
4.806717
3.458830
1.548288
2.412537
2.063045
1.074640
1.625428
7.314565
0.920083
1.357406
8.050674
1.769686
3.059043
2.435967
0.853857
0.526543
0.611704
3.998512
1.924460
2.148086
1.107779
2.347857
1.227432
0.944927
0.528105
1.683135
5.624920
4.202784
4.716895
2.174802
1.347257
1.209145
1.197700
1.854922
1.174710
0.804358
1.595828
3.932309
4.517701
6.240600
0.988205
0.276148
0.669358
1.076221
1.107059
0.962760
0.947649
1.227306
0.653527
1.571738
1.199008
0.804503
1.375344
0.916728
1.077124
1.386992
1.443117
0.875668
1.167449
1.198805
1.193001
1.508963
1.134181
0.796363
0.289031
0.316509
1.028757
1.028147
0.425400
0.482397
2.582980
1.354697
1.764746
0.714735
1.189185
1.696069
1.765776
0.332705
2.545505
0.680253
2.487812
1.183267
2.769676
0.756378
1.039584
1.475817
1.093645
1.603800
2.623094
1.397734
1.148294
0.952134
1.400677
1.784515
5.002313
6.334008
5.343009
4.108373
4.080149
4.604361
3.335770
6.063846
3.487613
5.971399
4.878676
2.850983
1.983876
2.790906
1.934617
0.746732
4.056190
2.543113
1.856749
1.394040
0.727184
2.546073
1.450073
0.521146
1.070836
1.191566
1.613798
1.823539
1.331419
1.814006
1.646413
1.490176
1.445526
1.771139
1.433883
1.362573
2.557159
2.089781
1.319189
1.495768
2.394924
1.060112
1.421894
1.999468
1.118013
1.394834
2.423914
1.229224
1.287964
0.407748
1.199739
5.207382
5.740106
5.247346
5.080349
1.284059
1.420719
1.298399
1.264525
1.181639
1.699063
1.297717
1.684042
1.547379
2.096199
3.835254
1.474306
1.522873
0.693657
2.536768
2.206628
1.326566
3.200980
1.147483
1.337551
2.470458
3.990258
3.555349
2.526109
3.040764
2.825241
2.412737
0.614268
2.675358
2.333880
3.589007
1.390543
0.769884
0.834896
0.471720
1.400427
1.413248
2.190151
2.433442
2.188569
1.609215
1.321393
1.463332
1.116954
1.896413
1.201089
4.544495
3.202281
3.329978
4.036360
3.719074
4.232010
2.325715
1.114447
2.271345
3.468137
1.664439
1.812240
2.256753
2.388496
4.850329
1.136258
1.158002
0.584982
0.178555
1.291308
1.299843
1.255452
2.532108
1.169096
5.086284
2.562741
4.215474
1.461606
1.261376
2.487821
2.427417
2.780568
1.105970
1.978468
1.672963
0.407069
0.649372
1.881602
1.417185
4.150666
1.168112
2.029565
0.883022
0.903953
0.680050
2.391974
0.784640
0.574806
0.208479
0.705987
0.383166
0.725810
1.167153
3.130228
3.635985
3.308794
0.288163
4.845435
1.037185
0.919081
1.108477
1.070223
0.963030
0.860419
2.603724
3.843632
2.243550
1.641634
1.937004
1.442668
0.788575
1.035550
1.123105
0.889742
1.391522
1.008688
2.959570
3.355844
1.561896
1.530524
0.854464
1.143357
1.602737
2.778050
2.917276
1.668452
4.764898
1.761870
0.909689
4.914727
1.040333
6.145576
6.900735
5.841216
5.196249
5.242113
5.647669
3.964369
4.587585
1.027808
0.945328
0.944457
1.108469
1.063253
1.085942
1.052756
0.766885
0.971625
1.883363
5.518217
2.287076
1.845602
2.069385
3.152291
3.110218
3.028117
3.214650
3.404448
2.127187
1.775346
3.172744
2.231803
3.284619
3.194439
4.268601
4.669623
2.052195
2.212085
3.208845
4.587090
1.795945
3.207954
2.026305
1.461005
3.025149
2.988114
3.302984
3.237980
3.848976
3.207478
3.956272
2.705911
3.175925
3.064712
2.554156
4.278748
4.022049
1.365829
3.874667
1.097996
0.565978
0.717402
0.955334
0.981577
1.393280
0.979967
1.182552
0.956430
0.519355
1.885391
1.473570
0.712517
0.882767
1.409192
0.895828
0.903757
3.946777
2.120315
1.460848
2.154190
0.810324
1.465675
1.132395
1.246698
0.653999
0.361792
2.010619
2.321808
2.552492
1.818890
1.303368
0.873739
1.114447
0.846997
0.637821
1.828564
2.039770
1.307808
1.126347
1.355748
1.434091
0.982185
3.951912
3.450475
2.833555
3.200746
2.606114
2.124017
1.647404
1.156040
0.873314
1.416083
1.115707
1.090186
0.984067
4.324820
3.323304
4.132337
5.384685
2.018513
1.315119
1.692817
1.745584
2.631299
1.911213
2.371586
1.731914
1.947521
4.318787
3.606959
3.598197
2.100194
2.280148
1.696098
1.535767
1.559011
1.705010
1.800469
2.185567
1.638490
1.357307
1.262258
1.256563
2.981510
3.712957
3.834628
2.481881
3.095693
3.562547
2.580160
2.047217
2.563708
1.303383
6.284161
5.674418
0.787927
3.122739
1.537573
1.373066
1.781651
2.063600
2.143696
0.962004
5.374938
4.664954
4.729852
4.377364
2.352650
1.271214
1.347677
1.369940
1.048298
3.803655
3.087953
2.666442
2.634280
2.094186
1.926278
2.504248
2.988831
3.132562
4.746296
0.989719
3.438733
3.161533
2.395048
1.880097
1.396597
1.066963
0.912163
0.828500
2.514315
2.097803
4.363878
1.826861
4.342603
2.936265
3.473232
0.932366
1.157611
1.188975
2.568881
1.958772
2.211347
3.514744
2.427678
2.006178
5.210301
1.203455
1.467352
0.986466
0.944076
4.499667
1.904880
1.494295
2.065852
2.315228
1.865295
1.596219
1.748984
1.254023
3.704388
4.006041
3.660311
3.361971
1.590650
2.665512
2.402549
2.911663
4.748744
3.231935
6.086058
0.906774
3.189065
4.646194
4.033124
4.079905
3.092341
2.390934
3.507340
2.255749
2.432254
5.017041
4.443439
1.028618
0.933484
0.699915
0.992435
0.839705
0.771848
3.555948
1.536219
1.469465
1.433378
3.488178
2.246209
3.728598
2.733416
2.326298
2.299479
2.477272
2.421108
1.834057
2.177913
2.455256
1.826750
1.661626
1.325273
1.185091
0.971651
1.607678
2.538809
4.152472
1.043143
0.969034
0.765434
2.388436
2.490611
1.334838
2.193018
2.825156
1.679442
2.746209
2.096529
3.057446
3.648942
2.593154
1.952458
2.928531
4.861409
5.870890
4.662102
4.110869
2.747827
2.710279
2.786652
4.264975
3.607232
2.646482
3.579885
1.653414
1.472241
2.644515
2.327348
2.394236
1.748571
2.925465
4.300358
4.795092
3.713569
1.402708
1.078132
1.564143
1.761082
1.130751
0.917237
1.150285
1.156222
2.551222
3.098204
2.542104
4.178025
3.177792
2.506373
2.870146
2.729478
3.386706
1.565531
3.661506
1.681021
1.326320
6.140569
1.699881
1.492576
2.673329
2.177417
4.933092
2.703736
2.055146
1.066179
1.924122
1.550440
2.501857
1.844858
3.913745
3.375435
2.315362
2.257780
1.759875
2.359043
3.011009
2.532156
3.158650
2.547745
1.841818
0.770998
0.881029
0.551310
1.969783
1.255383
1.322561
3.826657
3.192355
1.874694
4.343573
3.886443
6.530858
5.003304
2.871310
2.163958
1.712078
3.151775
2.879575
3.898581
2.111971
2.262126
1.953964
2.106854
4.204876
1.632294
1.005720
4.822860
4.926788
4.224604
3.596276
3.047970
2.022396
2.360896
2.181037
2.092053
2.125970
2.080601
2.268967
1.022921
0.890733
1.118490
2.202617
0.911406
3.090215
3.011411
2.428440
4.612277
3.063633
1.175431
1.143923
1.137715
0.774930
1.790813
2.211946
2.076137
1.977740
1.034817
4.446871
4.941069
4.004654
4.048964
0.860550
1.232540
0.927285
2.251452
2.504015
1.445873
1.017388
0.858244
0.945377
0.900130
2.419134
1.796342
2.416687
2.228887
1.561427
3.134619
2.258371
1.947929
1.420434
3.169964
2.516640
1.796845
2.599070
5.410218
4.845931
2.427858
3.283693
2.490587
2.101081
1.298772
2.717030
4.493525
3.497671
2.851065
2.910369
1.602332
1.720002
2.013498
1.451745
4.737475
5.031764
1.064463
1.065868
1.106424
1.041914
1.440491
1.531780
3.760024
1.246554
0.980666
2.025600
1.711107
2.323019
2.644734
2.502355
1.813059
1.759927
1.380253
3.413372
3.486637
4.140779
3.190195
2.861499
1.414508
0.511189
0.936132
0.421211
0.617086
0.381817
0.358214
0.630735
0.361968
0.982349
0.934511
0.546010
0.833408
0.432391
1.878088
1.501896
1.791326
2.086160
1.944699
1.933667
0.172504
0.989887
0.186314
0.488296
0.861400
0.519039
0.490069
0.558525
0.889506
0.903902
1.229626
1.663625
1.341355
1.934140
0.772659
0.834902
0.877439
0.443986
0.830982
0.440331
0.182517
0.224401
0.033145
1.225911
0.826654
1.773195
1.142493
0.661388
0.623480
0.807791
0.836163
2.369841
0.796948
0.206425
0.189937
0.336599
2.204497
1.152102
1.640041
0.197153
0.430523
2.421090
0.596994
0.464500
0.809484
0.905540
0.546260
0.507308
2.451759
1.201732
2.496236
0.896720
1.768786
1.031834
0.358236
0.562839
2.540318
1.873318
1.666581
1.399994
1.556800
2.039411
1.880446
2.379549
1.987975
3.024075
2.667481
3.338844
2.432216
2.673441
3.297288
2.864308
2.291032
2.381628
