# vtk DataFile Version 2.0
Unstructured Grid Example
ASCII
DATASET UNSTRUCTURED_GRID
POINTS 2044 float
1.119324 -0.059886 0.131099 
-0.046135 1.098969 0.121717 
-0.879079 -0.041767 -0.145767 
-0.056797 -0.886483 -0.143909 
-0.023945 -0.017814 0.998417 
1.123550 -0.157169 0.160527 
1.117474 -0.245904 0.180436 
1.097159 -0.332655 0.189363 
1.057091 -0.420100 0.176778 
0.999153 -0.499384 0.155142 
0.927447 -0.561261 0.115341 
0.849560 -0.621041 0.066901 
0.761764 -0.662469 0.013363 
0.658667 -0.704769 -0.041607 
0.557516 -0.740167 -0.091266 
0.459493 -0.777221 -0.130858 
0.354482 -0.808952 -0.161998 
0.247910 -0.827239 -0.185151 
0.146040 -0.842635 -0.190234 
0.043506 -0.862931 -0.173933 
-0.162022 -0.900794 -0.104274 
-0.265399 -0.910964 -0.054739 
-0.361111 -0.913132 -0.004455 
-0.451231 -0.901437 0.043035 
-0.546054 -0.897743 0.104009 
-0.628270 -0.868148 0.134024 
-0.700568 -0.819838 0.154573 
-0.762569 -0.770900 0.156395 
-0.813392 -0.698399 0.148196 
-0.859263 -0.622023 0.126380 
-0.888618 -0.534771 0.086909 
-0.901946 -0.441668 0.041707 
-0.903413 -0.346774 -0.008603 
-0.902797 -0.246837 -0.061591 
-0.894212 -0.142889 -0.106442 
-0.855010 0.060408 -0.173758 
-0.829900 0.161165 -0.188731 
-0.807167 0.262860 -0.184590 
-0.786069 0.360352 -0.166925 
-0.756128 0.468793 -0.142162 
-0.728123 0.574502 -0.092548 
-0.687799 0.672807 -0.045265 
-0.649016 0.773685 0.010473 
-0.599514 0.860438 0.063091 
-0.542460 0.937199 0.114583 
-0.475296 1.004674 0.159079 
-0.404374 1.051796 0.178453 
-0.319234 1.089351 0.184143 
-0.228687 1.102302 0.175523 
-0.137952 1.111701 0.157495 
0.047237 1.078344 0.089669 
0.138630 1.043360 0.045042 
0.231623 0.997203 0.001078 
0.320189 0.944007 -0.041851 
0.403583 0.877430 -0.088603 
0.486584 0.806184 -0.120813 
0.572052 0.729076 -0.140325 
0.649422 0.656110 -0.149919 
0.733472 0.569365 -0.141908 
0.804256 0.490584 -0.117183 
0.875075 0.407299 -0.085611 
0.939136 0.320684 -0.047948 
1.004122 0.228618 -0.002446 
1.059709 0.135490 0.046728 
1.095815 0.039931 0.091127 
1.090466 -0.040064 0.226827 
1.055825 -0.021915 0.316446 
1.011719 -0.013373 0.397545 
0.955642 -0.012462 0.467582 
0.898514 -0.005704 0.540190 
0.833283 -0.000696 0.606201 
0.760169 0.005436 0.665124 
0.686197 0.006527 0.722924 
0.606196 0.005044 0.770844 
0.522371 0.004420 0.819524 
0.442455 0.001092 0.868925 
0.352795 -0.001958 0.905703 
0.263226 -0.007928 0.940825 
0.170171 -0.011510 0.968617 
0.074233 -0.013781 0.985989 
-0.025038 0.077700 0.987834 
-0.022090 0.171021 0.973208 
-0.022609 0.262204 0.949820 
-0.019870 0.351500 0.918601 
-0.019540 0.437850 0.879009 
-0.017401 0.521895 0.836936 
-0.011023 0.601313 0.794829 
-0.009682 0.678475 0.741720 
-0.007399 0.755339 0.682104 
-0.005452 0.828082 0.617929 
-0.007459 0.895255 0.551831 
-0.008692 0.952422 0.475723 
-0.013622 1.003174 0.396564 
-0.020195 1.046836 0.312765 
-0.030503 1.080516 0.221608 
-0.123943 -0.018921 1.003386 
-0.222729 -0.015316 0.994809 
-0.322905 -0.014677 0.977277 
-0.420230 -0.017655 0.938234 
-0.513880 -0.010986 0.884994 
-0.597741 -0.008719 0.821086 
-0.677054 -0.009159 0.753717 
-0.743776 -0.007901 0.672134 
-0.792182 -0.010401 0.574154 
-0.835659 -0.010101 0.477086 
-0.867447 -0.008935 0.374644 
-0.894686 -0.007898 0.273760 
-0.901244 -0.013038 0.163141 
-0.901178 -0.013792 0.054764 
-0.889833 -0.024738 -0.046402 
-0.021367 -0.115342 0.999624 
-0.016421 -0.213186 0.987579 
-0.014969 -0.312965 0.968913 
-0.012769 -0.407698 0.934279 
-0.010676 -0.498884 0.893515 
-0.007169 -0.583095 0.830675 
-0.004475 -0.660548 0.758840 
-0.000932 -0.730965 0.680132 
0.000645 -0.786383 0.585485 
-0.002553 -0.834351 0.488577 
-0.002268 -0.869505 0.384526 
-0.009102 -0.893863 0.275963 
-0.024044 -0.902161 0.167791 
-0.036387 -0.905056 0.058699 
-0.044411 -0.897663 -0.044625 
0.750782 0.448581 0.363730 
0.317877 0.361359 0.794463 
0.329892 0.863587 0.335234 
0.908638 0.315831 0.278726 
0.962208 0.254155 0.232599 
0.995787 0.189606 0.242837 
1.029878 0.162390 0.175405 
0.501197 0.777186 0.203383 
0.494723 0.320145 0.714598 
0.272950 0.656530 0.632495 
0.698540 0.602353 0.148492 
0.701095 0.294946 0.576120 
0.730905 0.598500 0.046911 
0.747474 0.190253 0.603442 
0.197358 0.510478 0.775569 
0.208294 0.813374 0.532806 
0.826142 0.479012 0.104877 
0.830836 0.213646 0.507144 
0.117799 0.394604 0.868462 
0.130282 0.909086 0.458994 
0.400834 0.740883 0.437838 
0.387745 0.506441 0.672633 
0.384508 0.892192 0.087895 
0.395858 0.154812 0.850906 
0.892465 0.398700 0.081742 
0.901110 0.179527 0.432799 
0.072275 0.319366 0.911431 
0.081470 0.960058 0.414091 
0.243092 0.980693 0.111775 
0.259793 0.102577 0.926380 
0.956944 0.298224 0.051644 
0.964125 0.088230 0.407935 
0.549134 0.577095 0.474122 
0.064561 0.256485 0.935157 
0.071740 0.993420 0.359731 
0.183988 1.017259 0.114537 
0.202022 0.073424 0.949706 
1.021238 0.095881 0.302984 
1.010015 0.219116 0.079315 
1.058125 0.064989 0.222465 
0.629854 0.435791 0.536934 
0.625841 0.612222 0.293403 
0.514772 0.704940 0.340356 
0.506710 0.456750 0.629166 
0.742262 0.528126 0.221889 
0.738445 0.350674 0.487342 
0.680133 0.500391 0.392160 
0.378659 0.634678 0.581627 
0.303080 0.179600 0.885202 
0.297217 0.943806 0.161869 
0.367181 0.879197 0.214802 
0.366912 0.266545 0.816592 
0.332427 0.707281 0.542577 
0.325734 0.585080 0.659897 
0.458958 0.756566 0.322814 
0.449932 0.423343 0.688643 
0.254151 0.448718 0.781012 
0.269734 0.839263 0.447867 
0.447262 0.834047 0.148369 
0.448879 0.242678 0.776551 
0.292365 0.516785 0.726574 
0.304223 0.777809 0.493839 
0.210176 0.387946 0.833933 
0.225032 0.891257 0.411057 
0.847416 0.424779 0.226558 
0.862333 0.277902 0.405859 
0.409293 0.341448 0.756403 
0.417489 0.828599 0.266604 
0.368145 0.808646 0.384013 
0.353153 0.434321 0.741876 
0.095559 0.546805 0.799183 
0.101516 0.807206 0.602854 
0.207680 0.742820 0.605687 
0.205555 0.594198 0.724770 
0.060237 0.462357 0.849675 
0.075079 0.877478 0.542195 
0.618748 0.312990 0.635871 
0.614103 0.678948 0.156815 
0.443061 0.850078 -0.028827 
0.467130 0.076165 0.835548 
0.171600 0.934149 0.382076 
0.163078 0.334631 0.882677 
0.194072 0.988999 0.215214 
0.199788 0.174386 0.931023 
0.429047 0.668431 0.499350 
0.406154 0.564565 0.615518 
0.242114 0.280916 0.867513 
0.249665 0.930630 0.292493 
0.955739 0.198066 0.331342 
0.931270 0.324432 0.151465 
0.154840 0.461499 0.819326 
0.169663 0.859285 0.502377 
0.370143 0.909332 -0.006576 
0.395560 0.057897 0.879301 
0.309525 0.949020 0.051796 
0.329625 0.081834 0.900615 
0.041644 0.394735 0.887185 
0.053928 0.921114 0.492134 
0.088811 1.023652 0.275300 
0.088934 0.179931 0.951190 
0.139101 0.260011 0.919466 
0.143314 0.977455 0.325326 
0.596830 0.503205 0.513390 
0.592702 0.600715 0.375435 
0.532409 0.638993 0.392205 
0.532508 0.512780 0.558946 
0.713877 0.428251 0.442469 
0.723313 0.521463 0.308432 
0.623239 0.538389 0.426992 
0.520851 0.775284 0.099872 
0.530221 0.234170 0.739558 
0.797626 0.488002 0.193138 
0.794211 0.312886 0.451544 
0.653487 0.565811 0.336281 
0.657211 0.467457 0.474770 
0.763843 0.384247 0.422439 
0.686454 0.394656 0.523543 
0.673759 0.577049 0.248336 
0.470680 0.692514 0.408751 
0.465110 0.509875 0.614826 
0.824699 0.374841 0.344638 
0.789607 0.472433 0.277063 
0.910391 0.241350 0.369341 
0.990443 0.236310 0.156572 
0.550468 0.716766 0.244213 
0.547103 0.378097 0.645772 
0.626735 0.378696 0.586735 
0.617352 0.647104 0.225142 
0.492857 0.634341 0.462211 
0.464045 0.587389 0.540050 
0.171076 0.669961 0.680235 
0.578325 0.659240 0.313491 
0.575711 0.450446 0.581281 
0.088667 0.633935 0.738082 
0.091007 0.716152 0.676453 
0.654369 0.660889 0.073607 
0.660339 0.231368 0.654697 
1.084423 0.035761 0.159601 
0.503913 0.155891 0.788127 
0.488769 0.809226 0.031901 
0.721790 0.091790 0.662742 
0.696544 0.612570 -0.071525 
0.768639 0.269319 0.524577 
0.765865 0.545198 0.133187 
0.771433 0.542918 -0.018955 
0.796196 0.101668 0.601434 
0.115007 0.077026 0.968241 
0.101508 1.049367 0.162054 
0.920028 0.072783 0.477637 
0.904224 0.382201 0.002583 
0.843792 0.454322 -0.014914 
0.865080 0.095594 0.529796 
0.886119 0.395194 0.168519 
0.581547 0.272411 0.688506 
0.574265 0.720672 0.118094 
0.021960 1.075945 0.163229 
0.036802 0.044463 0.985388 
0.037894 0.110453 0.972936 
0.033605 1.059473 0.227877 
0.618517 0.690357 -0.071487 
0.640684 0.082786 0.724143 
0.533619 0.771473 -0.060152 
0.558200 0.079921 0.782114 
0.676305 0.643142 -0.008780 
0.681766 0.147515 0.666927 
0.583174 0.729721 0.020332 
0.597358 0.173651 0.728369 
0.770725 0.544965 0.066809 
-0.489551 0.421432 0.787303 
-0.392466 0.905165 0.488515 
-0.819911 0.361949 0.198694 
-0.369281 0.284320 0.897124 
-0.287158 0.248821 0.940596 
-0.248981 0.181216 0.965771 
-0.189457 0.111706 0.982106 
-0.340440 0.795348 0.636483 
-0.791988 0.298156 0.415020 
-0.672014 0.683215 0.280289 
-0.312532 0.595044 0.773817 
-0.668684 0.258682 0.678275 
-0.206351 0.587914 0.804663 
-0.683153 0.164983 0.699719 
-0.544163 0.876030 0.325300 
-0.772247 0.528579 0.116341 
-0.235932 0.478092 0.857524 
-0.543926 0.190315 0.829460 
-0.433701 0.983853 0.305295 
-0.806478 0.396194 -0.012884 
-0.747778 0.501125 0.340591 
-0.535523 0.758924 0.483301 
-0.175331 0.918412 0.547190 
-0.862777 0.137570 0.290861 
-0.189045 0.399994 0.898725 
-0.464557 0.136691 0.893768 
-0.364382 1.038178 0.273015 
-0.818318 0.323059 -0.080726 
-0.130359 1.015224 0.424413 
-0.887333 0.093702 0.128725 
-0.391131 0.070496 0.944630 
-0.115787 0.321596 0.937833 
-0.606124 0.556213 0.571666 
-0.304023 1.065501 0.267988 
-0.828827 0.255446 -0.098959 
-0.104762 1.040845 0.366948 
-0.890126 0.067845 0.067201 
-0.267577 0.088440 0.977821 
-0.132119 0.195674 0.975288 
-0.184301 0.042173 0.992836 
-0.456378 0.595522 0.698231 
-0.658602 0.396036 0.618516 
-0.484495 0.701885 0.595586 
-0.732595 0.431663 0.467190 
-0.590588 0.309528 0.738691 
-0.379570 0.512283 0.801599 
-0.535290 0.465242 0.712937 
-0.657523 0.648435 0.395518 
-0.202286 0.974608 0.474115 
-0.870267 0.167032 0.173007 
-0.295229 0.913322 0.533978 
[...]
POINT_DATA 2044
SCALARS u float 1
LOOKUP_TABLE default
6.921934
6.049074
7.174612
7.098606
1.105577
7.912166
8.582330
8.856358
8.304585
7.267568
5.554847
3.793157
2.656960
3.090057
4.776188
6.215241
7.421432
8.508332
8.884553
8.330862
5.716530
4.187683
3.085193
3.107084
4.772251
5.801334
6.456839
6.576548
6.155713
5.381227
3.986744
2.792850
2.896391
4.144775
5.675619
8.375107
9.026372
8.851931
8.050089
7.022924
5.179578
3.841850
3.291537
4.191921
5.787965
7.434578
8.161883
8.458362
7.994566
7.396370
4.898564
3.535148
2.632344
2.880267
4.130874
5.230882
5.908249
6.234616
5.956911
5.058126
3.964424
2.953826
2.873785
4.046416
5.462532
6.109542
5.340156
4.482795
3.384789
2.626345
1.874382
1.248368
0.999500
1.062678
1.315444
1.174344
1.296079
1.201410
1.110721
1.072283
1.223438
1.240626
1.359412
1.381719
1.440206
1.416744
1.521606
1.699906
1.901934
2.319039
3.028720
3.614483
4.317034
5.047614
5.669308
1.225482
1.278879
1.522166
1.624128
1.627281
1.638677
1.764854
1.897204
2.370025
2.931409
3.634086
4.181849
5.157540
5.990038
6.675975
1.030771
0.938240
1.098515
1.107896
1.172119
1.052618
1.112808
1.332642
1.875853
2.482378
3.247346
4.114913
5.042966
5.926008
6.599911
3.565217
2.704673
1.467263
1.509730
1.202862
1.951724
2.948307
4.421995
3.011321
1.934223
5.275128
2.125443
5.417090
0.899202
1.885481
0.222729
4.073574
0.495373
1.554888
1.592208
3.000634
3.111404
2.847137
1.853181
2.938112
0.647273
1.442690
2.774456
1.796168
1.338224
2.297206
2.445657
4.095948
1.389014
3.301974
2.534454
1.229872
3.339892
2.528722
4.271218
3.430496
5.079829
4.354760
3.365522
4.625093
2.511742
4.155837
2.875426
1.794167
1.584806
2.315003
2.487486
2.306494
2.500604
3.964042
3.193139
2.421143
0.735188
3.775597
2.702643
2.417172
1.555712
2.114485
0.366997
3.153163
0.914177
2.947506
3.044876
2.244586
2.816864
1.128580
1.149700
0.719863
1.513132
1.369083
2.004164
2.662748
5.574754
4.358845
1.572603
1.301219
1.616157
1.813228
1.328452
3.396524
3.233875
2.115882
0.734868
1.267184
1.968752
1.775455
0.666637
3.112710
1.399726
2.219083
1.483175
1.395117
2.670281
3.494161
1.340385
1.409514
2.158419
3.755495
4.653258
4.625494
3.738055
3.375826
4.279512
4.312182
5.062758
2.379728
4.128305
1.851192
4.801126
3.668351
2.798408
2.827652
5.199007
4.070949
3.506978
2.449214
3.715899
0.553516
1.800709
4.898771
3.280447
3.081510
5.479268
4.126067
3.857751
1.146240
4.840714
3.421192
1.175106
0.995227
5.751447
1.757869
5.165847
1.950865
4.866719
0.814480
6.368542
1.505817
4.686678
5.206620
0.541958
1.196506
3.765649
1.931939
3.194918
4.354299
1.028909
2.719367
2.456916
5.637927
5.009573
1.139640
1.276922
4.600689
6.032038
1.248904
5.559839
1.417007
5.921892
1.382846
5.739726
1.659988
4.874152
2.234628
5.799585
5.436132
1.984609
1.764846
1.620718
1.346105
4.400397
3.943773
0.322669
2.445159
2.453264
2.234788
2.454706
4.788706
3.862439
2.135046
2.072903
7.033195
6.527971
2.412033
3.036880
4.737060
5.068820
1.871206
1.825409
7.769961
7.723694
5.770108
6.224863
1.760026
1.510397
1.336180
7.928767
8.333155
5.905379
6.581971
1.542936
1.403196
1.249534
2.337173
2.057794
2.883030
2.378503
2.224087
2.495045
1.860210
0.656938
5.715419
6.146129
5.503692
5.489556
2.140855
1.351062
3.857920
3.444006
5.366046
4.779396
4.658607
4.642993
3.132227
4.047483
5.785392
6.507790
2.115216
2.035845
4.744045
5.218509
4.306617
4.637158
3.993593
4.780377
2.069599
2.782175
6.561231
6.012022
2.648140
2.883641
3.460683
3.866093
7.039122
6.637609
6.892037
7.161298
0.796210
1.918338
6.637884
6.611429
1.757631
5.421042
6.001947
3.674350
4.496011
4.686065
5.309049
7.203966
7.550563
7.657449
8.236167
7.676637
7.386990
1.985375
1.667426
1.577152
2.117435
2.266497
2.002355
1.694088
3.596259
3.743382
2.242925
2.279031
1.867200
1.967992
2.363731
2.427669
2.284223
1.877068
2.537276
1.790036
2.092240
2.192574
1.617365
3.364817
2.898153
2.927879
2.518924
1.099046
1.168935
1.390646
2.070636
2.587762
2.333444
2.627801
2.710140
2.659601
3.900662
3.590352
2.131097
2.109858
2.288174
2.311446
2.138518
1.985810
6.528803
7.335431
1.743853
1.632068
1.747435
1.807326
3.123029
3.204482
7.619039
6.576295
8.143388
7.356492
2.020687
2.352026
2.454312
2.909312
3.182580
1.884948
2.430288
2.513904
3.173449
3.049746
1.258353
1.213583
2.882984
1.941196
2.526539
2.432969
2.054159
1.650789
1.568381
2.035170
6.057529
2.279669
2.556448
1.628215
1.486158
4.503718
4.944884
2.114772
1.902782
2.795825
3.283268
4.491622
4.437961
1.537649
1.311112
1.974263
1.646329
1.978928
2.351369
3.358147
3.130153
1.212442
1.473573
4.595156
2.248447
2.426085
4.397100
4.172135
1.431517
1.595053
3.286760
3.379273
3.671122
3.724075
2.591965
2.692000
3.313653
5.242163
1.607163
1.590885
0.566836
0.677615
5.333800
5.382871
3.087126
3.581283
3.490291
4.174803
0.223289
0.653575
4.929386
4.601898
2.983470
2.493830
2.305633
2.710725
2.284884
1.730463
3.923454
3.093042
5.905429
5.330036
5.908938
5.705707
4.017391
4.707801
2.334381
1.851523
2.255562
2.087483
1.696336
2.012166
2.608667
2.497111
4.780963
4.922753
1.111751
0.773931
1.737684
2.200677
4.474603
3.771599
3.038614
2.971178
3.120252
2.956277
3.467428
3.056702
3.217163
3.286626
1.755000
1.790793
3.934925
3.995638
4.198956
4.245876
3.172068
2.998591
3.732004
0.373283
0.826005
2.460567
2.482166
3.436587
3.438561
2.680941
3.100741
3.001922
4.489662
4.331997
2.628211
2.802692
2.563237
2.598016
2.847370
2.912489
2.256530
4.626375
4.742854
6.380482
3.619326
3.514381
6.545308
6.260946
1.683915
1.286164
0.589686
0.874137
1.274483
0.874034
2.332832
2.049432
1.309204
1.390813
4.952836
4.936081
1.288436
1.499613
1.384042
1.202365
1.599835
1.280667
5.839711
5.964666
4.786396
4.728901
2.212152
1.237917
0.946005
1.297936
1.649079
0.948146
0.964207
0.901859
0.620449
0.568471
1.279461
1.047820
1.100031
1.142826
3.574438
5.323119
1.391301
5.794766
6.561833
6.937068
7.192881
7.208763
3.207580
1.473607
2.415009
1.939404
2.983872
2.922159
2.755861
4.031432
1.593217
5.062030
4.286750
5.090615
1.161484
1.470768
3.469646
6.122431
1.340199
4.712148
6.522689
5.500675
1.034473
8.157809
1.202361
7.800620
4.792914
1.627316
6.124638
1.063375
8.376145
1.171174
7.889150
6.146416
1.216858
2.374115
2.030786
1.728348
3.718273
3.167018
2.836814
2.023196
7.161859
1.299717
5.581505
1.451254
2.863207
1.917345
3.164131
1.583285
4.632718
1.322157
4.453677
1.384391
1.564014
3.656131
1.232569
5.315059
5.536877
4.807536
1.417587
4.380357
1.516862
4.270685
1.323864
3.234031
2.074005
3.161624
4.004810
1.140371
2.263690
0.364411
5.485585
1.334904
5.885315
1.201135
7.630754
1.210320
1.753736
2.510331
1.339553
6.511689
5.788749
7.023639
1.339083
4.572402
6.871592
1.267372
7.665601
1.253443
1.127305
4.414207
7.005654
0.972023
1.134520
6.735217
1.309983
2.024004
1.703372
1.713059
2.999983
3.192104
1.957695
3.120621
1.540469
4.229970
4.446690
2.533778
1.962740
3.837295
1.920692
2.926417
2.264792
1.563697
4.686497
3.936590
1.761039
1.841069
0.707461
2.248599
6.361895
1.712242
1.867976
2.441147
1.840935
1.152440
1.705167
2.384810
2.484393
0.415982
1.332864
4.119233
2.461244
1.880260
3.665387
3.574689
3.113655
4.180353
7.973316
0.991877
3.855775
7.297978
6.317305
3.179074
1.930046
1.681613
1.023573
7.493700
0.919430
7.076421
5.109652
1.762827
1.274038
3.584800
1.286368
2.217480
1.374114
2.004725
1.629414
2.012440
8.152886
6.064263
1.046651
2.086962
2.814218
3.178243
1.654297
3.043133
2.256871
2.908325
3.110222
4.558140
4.230948
1.088847
1.640322
1.473970
3.636153
3.635691
1.756672
2.739690
5.455612
4.283834
3.091457
1.278498
2.944594
5.751709
6.050815
3.679307
5.196399
3.349109
1.633713
2.632312
3.123936
4.061787
3.810061
5.380087
2.949264
4.867716
1.074751
2.464369
2.389793
1.620243
2.828717
1.988918
1.665036
2.887022
3.056026
4.852302
5.113415
6.932766
1.736610
5.825723
1.044274
6.503247
6.651253
6.311929
3.076223
4.812354
2.113951
1.176965
2.402927
3.715068
2.979302
4.412780
1.253700
3.687171
4.997188
2.845454
3.178981
4.102798
1.285100
4.109808
3.043479
7.099147
4.148291
4.693064
3.966883
2.492796
4.300163
2.923492
4.372419
1.735695
1.820760
1.930714
1.113545
2.828193
3.085696
2.761689
4.154863
1.857503
2.380308
4.302548
1.175496
1.868695
4.284767
2.805883
5.253158
4.269278
3.683374
0.933393
6.865006
2.432022
1.707716
3.512059
1.012411
7.213528
2.230843
1.222375
3.058291
4.198002
3.252110
6.762638
4.422336
4.049926
3.504497
2.475098
3.572336
6.491497
7.709808
2.395432
6.403070
1.313286
1.973714
1.528630
1.779258
5.077623
3.132956
5.118822
1.413830
5.913304
1.788868
3.763822
3.796903
3.429902
7.517035
3.758581
3.236505
3.629275
3.067838
1.825891
5.175758
3.718945
5.490431
6.368207
4.318404
5.905523
2.605399
2.339744
3.110596
3.945612
1.451995
2.543754
3.147054
3.296641
2.201574
3.411899
1.916826
2.186947
1.567621
1.016782
5.205248
7.155878
1.158275
5.245228
2.944528
2.657628
2.541078
3.490763
2.357203
5.531938
2.905409
2.490829
3.188684
4.579471
2.307785
1.450809
5.899270
1.491720
2.174735
2.139389
3.006963
2.965962
2.922877
6.064296
5.318113
4.800688
3.722439
5.916500
3.434463
1.222903
3.313481
7.753919
5.394870
3.959644
5.811069
1.003830
3.668756
1.237806
5.116314
3.535308
2.486861
4.984617
5.184681
4.428010
7.514643
1.479722
1.168812
1.146840
1.716021
4.640508
2.731112
2.480149
6.249028
7.925448
5.134640
6.287245
3.490763
3.393605
3.096941
7.506573
5.770139
1.868290
2.740700
3.640019
4.370767
7.270759
3.812745
4.975393
3.428660
3.162211
2.071184
1.115174
6.282520
4.377937
4.481689
6.784643
6.512005
2.288517
2.933492
7.149379
3.033690
3.463959
5.539700
3.509375
5.655573
2.866535
2.869441
7.581950
1.894465
2.826217
8.090462
4.922347
4.386896
4.311300
1.367081
2.545918
2.301625
6.031849
2.101412
3.769722
1.269082
4.481372
2.785241
6.518321
3.302065
1.083945
3.644790
3.253004
1.563658
2.330034
3.431467
1.275308
0.981098
3.804632
2.631483
3.333614
5.204928
5.315392
5.876629
3.792486
4.156915
2.809041
5.155008
3.606321
6.373883
2.035134
3.841572
3.970139
2.200568
3.520498
1.149129
0.973532
3.894903
1.778768
3.259583
3.655220
7.904040
2.124777
2.867891
4.196653
3.436319
4.831049
2.513394
1.399837
1.527590
1.311440
4.468066
5.263967
4.442728
3.739387
1.435297
3.146262
1.407715
3.715130
2.735703
1.251595
2.463509
1.929804
2.680797
1.443374
3.925328
5.521299
2.652071
3.625800
4.082574
2.551362
3.680683
4.585202
4.398755
1.759179
3.079175
4.746941
5.563092
4.691069
2.100205
2.919430
3.208725
4.595624
1.815446
1.590905
3.618051
6.822159
4.557975
2.813899
3.663146
8.230329
2.499221
2.099584
1.931501
4.471792
2.150973
4.493833
1.151548
2.694817
4.667282
5.443428
2.401667
2.621593
2.967970
1.728068
4.102051
3.561846
5.325116
3.244318
2.244971
1.965079
7.309092
2.736568
1.126714
1.416647
3.227521
3.561417
4.518679
1.707648
6.421035
2.872697
5.881916
5.820557
3.092629
2.924299
3.260186
4.226477
5.398978
3.636835
5.089654
4.724308
3.481366
2.997066
4.610964
3.653966
1.910374
4.806717
3.458830
1.548288
2.412537
2.063045
1.074640
1.625428
7.314565
0.920083
1.357406
8.050674
1.769686
3.059043
2.435967
0.853857
0.526543
0.611704
3.998512
1.924460
2.148086
1.107779
2.347857
1.227432
0.944927
0.528105
1.683135
5.624920
4.202784
4.716895
2.174802
1.347257
1.209145
1.197700
1.854922
1.174710
0.804358
1.595828
3.932309
4.517701
6.240600
0.988205
0.276148
0.669358
1.076221
1.107059
0.962760
0.947649
1.227306
0.653527
1.571738
1.199008
0.804503
1.375344
0.916728
1.077124
1.386992
1.443117
0.875668
1.167449
1.198805
1.193001
1.508963
1.134181
0.796363
0.289031
0.316509
1.028757
1.028147
0.425400
0.482397
2.582980
1.354697
1.764746
0.714735
1.189185
1.696069
1.765776
0.332705
2.545505
0.680253
2.487812
1.183267
2.769676
0.756378
1.039584
1.475817
1.093645
1.603800
2.623094
1.397734
1.148294
0.952134
1.400677
1.784515
5.002313
6.334008
5.343009
4.108373
4.080149
4.604361
3.335770
6.063846
3.487613
5.971399
4.878676
2.850983
1.983876
2.790906
1.934617
0.746732
4.056190
2.543113
1.856749
1.394040
0.727184
2.546073
1.450073
0.521146
1.070836
1.191566
1.613798
1.823539
1.331419
1.814006
1.646413
1.490176
1.445526
1.771139
1.433883
1.362573
2.557159
2.089781
1.319189
1.495768
2.394924
1.060112
1.421894
1.999468
1.118013
1.394834
2.423914
1.229224
1.287964
0.407748
1.199739
5.207382
5.740106
5.247346
5.080349
1.284059
1.420719
1.298399
1.264525
1.181639
1.699063
1.297717
1.684042
1.547379
2.096199
3.835254
1.474306
1.522873
0.693657
2.536768
2.206628
1.326566
3.200980
1.147483
1.337551
2.470458
3.990258
3.555349
2.526109
3.040764
2.825241
2.412737
0.614268
2.675358
2.333880
3.589007
1.390543
0.769884
0.834896
0.471720
1.400427
1.413248
2.190151
2.433442
2.188569
1.609215
1.321393
1.463332
1.116954
1.896413
1.201089
4.544495
3.202281
3.329978
4.036360
3.719074
4.232010
2.325715
1.114447
2.271345
3.468137
1.664439
1.812240
2.256753
2.388496
4.850329
1.136258
1.158002
0.584982
0.178555
1.291308
1.299843
1.255452
2.532108
1.169096
5.086284
2.562741
4.215474
1.461606
1.261376
2.487821
2.427417
2.780568
1.105970
1.978468
1.672963
0.407069
0.649372
1.881602
1.417185
4.150666
1.168112
2.029565
0.883022
0.903953
0.680050
2.391974
0.784640
0.574806
0.208479
0.705987
0.383166
0.725810
1.167153
3.130228
3.635985
3.308794
0.288163
4.845435
1.037185
0.919081
1.108477
1.070223
0.963030
0.860419
2.603724
3.843632
2.243550
1.641634
1.937004
1.442668
0.788575
1.035550
1.123105
0.889742
1.391522
1.008688
2.959570
3.355844
1.561896
1.530524
0.854464
1.143357
1.602737
2.778050
2.917276
1.668452
4.764898
1.761870
0.909689
4.914727
1.040333
6.145576
6.900735
5.841216
5.196249
5.242113
5.647669
3.964369
4.587585
1.027808
0.945328
0.944457
1.108469
1.063253
1.085942
1.052756
0.766885
0.971625
1.883363
5.518217
2.287076
1.845602
2.069385
3.152291
3.110218
3.028117
3.214650
3.404448
2.127187
1.775346
3.172744
2.231803
3.284619
3.194439
4.268601
4.669623
2.052195
2.212085
3.208845
4.587090
1.795945
3.207954
2.026305
1.461005
3.025149
2.988114
3.302984
3.237980
3.848976
3.207478
3.956272
2.705911
3.175925
3.064712
2.554156
4.278748
4.022049
1.365829
3.874667
1.097996
0.565978
0.717402
0.955334
0.981577
1.393280
0.979967
1.182552
0.956430
0.519355
1.885391
1.473570
0.712517
0.882767
1.409192
0.895828
0.903757
3.946777
2.120315
1.460848
2.154190
0.810324
1.465675
1.132395
1.246698
0.653999
0.361792
2.010619
2.321808
2.552492
1.818890
1.303368
0.873739
1.114447
0.846997
0.637821
1.828564
2.039770
1.307808
1.126347
1.355748
1.434091
0.982185
3.951912
3.450475
2.833555
3.200746
2.606114
2.124017
1.647404
1.156040
0.873314
1.416083
1.115707
1.090186
0.984067
4.324820
3.323304
4.132337
5.384685
2.018513
1.315119
1.692817
1.745584
2.631299
1.911213
2.371586
1.731914
1.947521
4.318787
3.606959
3.598197
2.100194
2.280148
1.696098
1.535767
1.559011
1.705010
1.800469
2.185567
1.638490
1.357307
1.262258
1.256563
2.981510
3.712957
3.834628
2.481881
3.095693
3.562547
2.580160
2.047217
2.563708
1.303383
6.284161
5.674418
0.787927
3.122739
1.537573
1.373066
1.781651
2.063600
2.143696
0.962004
5.374938
4.664954
4.729852
4.377364
2.352650
1.271214
1.347677
1.369940
1.048298
3.803655
3.087953
2.666442
2.634280
2.094186
1.926278
2.504248
2.988831
3.132562
4.746296
0.989719
3.438733
3.161533
2.395048
1.880097
1.396597
1.066963
0.912163
0.828500
2.514315
2.097803
4.363878
1.826861
4.342603
2.936265
3.473232
0.932366
1.157611
1.188975
2.568881
1.958772
2.211347
3.514744
2.427678
2.006178
5.210301
1.203455
1.467352
0.986466
0.944076
4.499667
1.904880
1.494295
2.065852
2.315228
1.865295
1.596219
1.748984
1.254023
3.704388
4.006041
3.660311
3.361971
1.590650
2.665512
2.402549
2.911663
4.748744
3.231935
6.086058
0.906774
3.189065
4.646194
4.033124
4.079905
3.092341
2.390934
3.507340
2.255749
2.432254
5.017041
4.443439
1.028618
0.933484
0.699915
0.992435
0.839705
0.771848
3.555948
1.536219
1.469465
1.433378
3.488178
2.246209
3.728598
2.733416
2.326298
2.299479
2.477272
2.421108
1.834057
2.177913
2.455256
1.826750
1.661626
1.325273
1.185091
0.971651
1.607678
2.538809
4.152472
1.043143
0.969034
0.765434
2.388436
2.490611
1.334838
2.193018
2.825156
1.679442
2.746209
2.096529
3.057446
3.648942
2.593154
1.952458
2.928531
4.861409
5.870890
4.662102
4.110869
2.747827
2.710279
2.786652
4.264975
3.607232
2.646482
3.579885
1.653414
1.472241
2.644515
2.327348
2.394236
1.748571
2.925465
4.300358
4.795092
3.713569
1.402708
1.078132
1.564143
1.761082
1.130751
0.917237
1.150285
1.156222
2.551222
3.098204
2.542104
4.178025
3.177792
2.506373
2.870146
2.729478
3.386706
1.565531
3.661506
1.681021
1.326320
6.140569
1.699881
1.492576
2.673329
2.177417
4.933092
2.703736
2.055146
1.066179
1.924122
1.550440
2.501857
1.844858
3.913745
3.375435
2.315362
2.257780
1.759875
2.359043
3.011009
2.532156
3.158650
2.547745
1.841818
0.770998
0.881029
0.551310
1.969783
1.255383
1.322561
3.826657
3.192355
1.874694
4.343573
3.886443
6.530858
5.003304
2.871310
2.163958
1.712078
3.151775
2.879575
3.898581
2.111971
2.262126
1.953964
2.106854
4.204876
1.632294
1.005720
4.822860
4.926788
4.224604
3.596276
3.047970
2.022396
2.360896
2.181037
2.092053
2.125970
2.080601
2.268967
1.022921
0.890733
1.118490
2.202617
0.911406
3.090215
3.011411
2.428440
4.612277
3.063633
1.175431
1.143923
1.137715
0.774930
1.790813
2.211946
2.076137
1.977740
1.034817
4.446871
4.941069
4.004654
4.048964
0.860550
1.232540
0.927285
2.251452
2.504015
1.445873
1.017388
0.858244
0.945377
0.900130
2.419134
1.796342
2.416687
2.228887
1.561427
3.134619
2.258371
1.947929
1.420434
3.169964
2.516640
1.796845
2.599070
5.410218
4.845931
2.427858
3.283693
2.490587
2.101081
1.298772
2.717030
4.493525
3.497671
2.851065
2.910369
1.602332
1.720002
2.013498
1.451745
4.737475
5.031764
1.064463
1.065868
1.106424
1.041914
1.440491
1.531780
3.760024
1.246554
0.980666
2.025600
1.711107
2.323019
2.644734
2.502355
1.813059
1.759927
1.380253
3.413372
3.486637
4.140779
3.190195
2.861499
1.414508
0.511189
0.936132
0.421211
0.617086
0.381817
0.358214
0.630735
0.361968
0.982349
0.934511
0.546010
0.833408
0.432391
1.878088
1.501896
1.791326
2.086160
1.944699
1.933667
0.172504
0.989887
0.186314
0.488296
0.861400
0.519039
0.490069
0.558525
0.889506
0.903902
1.229626
1.663625
1.341355
1.934140
0.772659
0.834902
0.877439
0.443986
0.830982
0.440331
0.182517
0.224401
0.033145
1.225911
0.826654
1.773195
1.142493
0.661388
0.623480
0.807791
0.836163
2.369841
0.796948
0.206425
0.189937
0.336599
2.204497
1.152102
1.640041
0.197153
0.430523
2.421090
0.596994
0.464500
0.809484
0.905540
0.546260
0.507308
2.451759
1.201732
2.496236
0.896720
1.768786
1.031834
0.358236
0.562839
2.540318
1.873318
1.666581
1.399994
1.556800
2.039411
1.880446
2.379549
1.987975
3.024075
2.667481
3.338844
2.432216
2.673441
3.297288
2.864308
2.291032
2.381628
