# vtk DataFile Version 2.0
Unstructured Grid Example
ASCII
DATASET UNSTRUCTURED_GRID
POINTS 1221 float
0.012180 -0.010866 -0.000546 
0.994240 -0.003065 0.001963 
1.012040 0.989174 0.000029 
-0.005804 0.996949 -0.001492 
0.011732 -0.010643 0.049453 
0.993760 -0.002823 0.051961 
1.011775 0.989439 0.050030 
-0.006157 0.997209 0.048508 
0.010009 0.039453 0.049220 
0.008285 0.089735 0.048965 
0.006609 0.140131 0.048722 
0.005069 0.190638 0.048572 
0.003565 0.241234 0.048427 
0.002226 0.291941 0.048324 
0.001030 0.342665 0.048261 
-0.000012 0.393388 0.048270 
-0.000876 0.444127 0.048377 
-0.001582 0.494839 0.048577 
-0.002121 0.545486 0.048850 
-0.002556 0.596044 0.049132 
-0.002908 0.646543 0.049406 
-0.003205 0.696925 0.049588 
-0.003522 0.747186 0.049629 
-0.003876 0.797327 0.049514 
-0.004317 0.847331 0.049315 
-0.004856 0.897291 0.049061 
-0.005484 0.947242 0.048781 
0.010465 0.039230 -0.000758 
0.008720 0.089498 -0.000958 
0.007031 0.139928 -0.001154 
0.005435 0.190500 -0.001301 
0.003957 0.241153 -0.001403 
0.002586 0.291849 -0.001453 
0.001393 0.342642 -0.001515 
0.000382 0.393450 -0.001505 
-0.000466 0.444250 -0.001417 
-0.001198 0.495030 -0.001214 
-0.001754 0.545688 -0.000976 
-0.002197 0.596233 -0.000704 
-0.002581 0.646691 -0.000473 
-0.002877 0.696988 -0.000325 
-0.003197 0.747119 -0.000329 
-0.003592 0.797143 -0.000443 
-0.003988 0.847138 -0.000676 
-0.004506 0.897065 -0.000942 
-0.005144 0.946981 -0.001212 
0.011949 -0.010744 0.024455 
-0.005980 0.997086 0.023511 
0.061640 -0.008934 0.049913 
0.111359 -0.007150 0.050385 
0.160856 -0.005338 0.050820 
0.210156 -0.003597 0.051188 
0.259258 -0.001884 0.051498 
0.308210 -0.000304 0.051723 
0.356904 0.001008 0.051792 
0.405518 0.002103 0.051652 
0.453990 0.002868 0.051370 
0.502383 0.003310 0.050991 
0.550776 0.003381 0.050535 
0.599303 0.003150 0.050093 
0.647866 0.002671 0.049781 
0.696617 0.002002 0.049603 
0.745583 0.001161 0.049677 
0.794781 0.000279 0.049993 
0.844262 -0.000614 0.050470 
0.893959 -0.001415 0.050973 
0.943807 -0.002157 0.051485 
0.062081 -0.009143 -0.000113 
0.111758 -0.007367 0.000287 
0.161198 -0.005562 0.000627 
0.210407 -0.003820 0.000962 
0.259473 -0.002136 0.001217 
0.308318 -0.000565 0.001348 
0.356846 0.000743 0.001374 
0.405287 0.001810 0.001218 
0.453668 0.002582 0.000907 
0.502018 0.003020 0.000511 
0.550424 0.003136 0.000090 
0.599019 0.002924 -0.000288 
0.647742 0.002526 -0.000604 
0.696593 0.001854 -0.000702 
0.745792 0.001039 -0.000568 
0.795209 0.000112 -0.000159 
0.844751 -0.000799 0.000349 
0.894452 -0.001634 0.000910 
0.944297 -0.002386 0.001454 
0.994003 -0.002940 0.026959 
0.994446 0.047199 0.051712 
0.995081 0.097271 0.051440 
0.995613 0.147311 0.051204 
0.996047 0.197319 0.050959 
0.996424 0.247213 0.050753 
0.996730 0.296928 0.050659 
0.997070 0.346595 0.050618 
0.997443 0.396091 0.050694 
0.997894 0.445500 0.050868 
0.998458 0.494840 0.051087 
0.999148 0.544112 0.051279 
1.000029 0.593409 0.051387 
1.001087 0.642636 0.051403 
1.002336 0.691943 0.051328 
1.003673 0.741298 0.051231 
1.005138 0.790681 0.051067 
1.006710 0.840176 0.050842 
1.008355 0.889793 0.050590 
1.010083 0.939539 0.050303 
0.994896 0.046966 0.001697 
0.995554 0.097037 0.001454 
0.996037 0.147107 0.001183 
0.996477 0.197104 0.000935 
0.996843 0.247042 0.000700 
0.997133 0.296889 0.000555 
0.997432 0.346574 0.000491 
0.997803 0.396208 0.000538 
0.998254 0.445683 0.000695 
0.998812 0.495024 0.000877 
0.999509 0.544253 0.001072 
1.000374 0.593448 0.001157 
1.001373 0.642660 0.001181 
1.002534 0.691884 0.001168 
1.003874 0.741177 0.001065 
1.005353 0.790533 0.000920 
1.006932 0.839961 0.000742 
1.008625 0.889542 0.000533 
1.010337 0.939271 0.000283 
1.011900 0.989316 0.025031 
0.961692 0.991144 0.049759 
0.911397 0.992912 0.049471 
0.860885 0.994717 0.049169 
0.810173 0.996456 0.048921 
0.759249 0.998139 0.048735 
0.708163 0.999639 0.048613 
0.656824 1.000947 0.048567 
0.605478 1.002058 0.048603 
0.553939 1.002819 0.048840 
0.502310 1.003255 0.049075 
0.450711 1.003365 0.049336 
0.399270 1.003163 0.049602 
0.347860 1.002707 0.049811 
0.296645 1.002022 0.049941 
0.245669 1.001209 0.049921 
0.194913 1.000322 0.049762 
0.144362 0.999449 0.049502 
0.094071 0.998630 0.049193 
0.043889 0.997884 0.048865 
0.961938 0.990872 -0.000217 
0.911651 0.992663 -0.000431 
0.861138 0.994452 -0.000653 
0.810355 0.996209 -0.000835 
0.759400 0.997905 -0.000987 
0.708256 0.999447 -0.001050 
0.656864 1.000775 -0.001058 
0.605312 1.001834 -0.000944 
0.553714 1.002623 -0.000712 
0.502099 1.003063 -0.000436 
0.450525 1.003165 -0.000237 
0.399077 1.002948 -0.000002 
0.347742 1.002512 0.000195 
0.296631 1.001835 0.000252 
0.245784 1.001011 0.000144 
0.195128 1.000133 -0.000059 
0.144656 0.999230 -0.000377 
0.094368 0.998384 -0.000738 
0.044237 0.997633 -0.001112 
0.018377 0.997377 0.017577 
0.013747 0.997401 0.034068 
0.987609 0.990097 0.018792 
0.992040 0.990035 0.035342 
0.483303 1.003211 0.024412 
0.784815 0.997168 0.023954 
0.682537 1.000231 0.023744 
0.528819 1.002946 0.024188 
0.733816 0.998806 0.023805 
0.631131 1.001417 0.023747 
0.069122 0.998122 0.024058 
0.220352 1.000686 0.024955 
0.579671 1.002335 0.023942 
0.169734 0.999782 0.024721 
0.119344 0.998921 0.024395 
0.886312 0.993675 0.024394 
0.835671 0.995465 0.024139 
0.373503 1.002860 0.024916 
0.929990 0.992114 0.024612 
0.271139 1.001557 0.025084 
0.322175 1.002316 0.025073 
0.424860 1.003192 0.024678 
0.498108 0.504566 0.050133 
0.293113 0.296001 0.050426 
0.708487 0.706095 0.049841 
0.706689 0.293202 0.048861 
0.288461 0.711694 0.050951 
0.501457 0.785816 0.050047 
0.782461 0.497843 0.049590 
0.499589 0.227632 0.049915 
0.222198 0.502863 0.050344 
0.173203 0.166910 0.050147 
0.827343 0.169700 0.049604 
0.835349 0.827314 0.050035 
0.165414 0.830372 0.050406 
0.562646 0.644747 0.049976 
0.435372 0.363492 0.050245 
0.640316 0.440949 0.049240 
0.351185 0.570355 0.050785 
0.642968 0.849021 0.049352 
0.363920 0.155982 0.050855 
0.151450 0.357572 0.049544 
0.843816 0.359250 0.049400 
0.846565 0.638347 0.050407 
0.640094 0.157148 0.049277 
0.357011 0.849969 0.050480 
0.150903 0.633894 0.050420 
0.676993 0.583749 0.049629 
0.559184 0.335226 0.049416 
0.437813 0.673585 0.050638 
0.320366 0.422652 0.050537 
0.535691 0.885860 0.049474 
0.467229 0.121719 0.050551 
0.880034 0.463130 0.050045 
0.118392 0.462577 0.049432 
0.750327 0.895549 0.049276 
0.110775 0.252968 0.049316 
0.264766 0.096794 0.051009 
0.893080 0.254250 0.049874 
0.892375 0.731921 0.050678 
0.733980 0.112213 0.049205 
0.259991 0.891538 0.050431 
0.106858 0.737168 0.050390 
0.601562 0.743433 0.049797 
0.399662 0.263369 0.050426 
0.742723 0.405912 0.049043 
0.249127 0.599043 0.050771 
0.596569 0.524797 0.049633 
0.396140 0.478855 0.050559 
0.610281 0.257969 0.049143 
0.386620 0.749885 0.050746 
0.105657 0.087938 0.049882 
0.897678 0.093436 0.050589 
0.913240 0.895525 0.050016 
0.093918 0.904136 0.049637 
0.436991 0.907107 0.049879 
0.902093 0.559235 0.050591 
0.563341 0.100953 0.049912 
0.094423 0.560387 0.049678 
0.261895 0.201911 0.050545 
0.745077 0.796847 0.049771 
0.794127 0.258803 0.049123 
0.206080 0.746234 0.050786 
0.198020 0.276914 0.050018 
0.799865 0.714233 0.050181 
0.712198 0.209027 0.048928 
0.282930 0.795839 0.050791 
0.500417 0.416480 0.049939 
0.495549 0.592923 0.050269 
0.240563 0.365261 0.050192 
0.758931 0.634253 0.049945 
0.687601 0.502961 0.049409 
0.643862 0.348782 0.049008 
0.306764 0.507176 0.050645 
0.351884 0.658139 0.050919 
0.085452 0.176477 0.049294 
0.184712 0.080335 0.050609 
0.825339 0.915434 0.049461 
0.915163 0.180769 0.050331 
0.922602 0.814234 0.050502 
0.816697 0.082934 0.049866 
0.076920 0.815979 0.049971 
0.181205 0.914535 0.050088 
0.651542 0.658105 0.049747 
0.347719 0.347195 0.050479 
0.513302 0.701012 0.050192 
0.485267 0.307878 0.049886 
0.614342 0.919667 0.049011 
0.393664 0.085551 0.051153 
0.078143 0.389790 0.048921 
0.914330 0.387308 0.050030 
0.925996 0.655001 0.050895 
0.658617 0.078051 0.049436 
0.337877 0.928061 0.050207 
0.071374 0.659018 0.049985 
0.430734 0.826074 0.050233 
0.819850 0.564261 0.050059 
0.568148 0.182165 0.049571 
0.177005 0.566167 0.050300 
0.189248 0.430260 0.049944 
0.575335 0.821914 0.049608 
0.428363 0.182589 0.050508 
0.819087 0.426175 0.049450 
0.563548 0.461864 0.049675 
0.433366 0.546445 0.050546 
0.771494 0.332124 0.048943 
0.222658 0.669131 0.050835 
0.669602 0.782945 0.049692 
0.335336 0.220218 0.050644 
0.683150 0.931126 0.048921 
0.070026 0.311963 0.048902 
0.328460 0.070470 0.051324 
0.927154 0.320304 0.050051 
0.744323 0.560209 0.049700 
0.446899 0.740872 0.050460 
0.551058 0.267782 0.049499 
0.612867 0.598353 0.049735 
0.384742 0.409419 0.050477 
0.257134 0.444027 0.050361 
0.583554 0.397091 0.049392 
0.412643 0.611313 0.050698 
0.449009 0.432402 0.050246 
0.547006 0.576552 0.049966 
0.486203 0.938534 0.049497 
0.933095 0.511032 0.050649 
0.516732 0.069193 0.050475 
0.063341 0.511352 0.049184 
0.500949 0.842787 0.049815 
0.836066 0.505582 0.049917 
0.501245 0.156450 0.050122 
0.151551 0.499367 0.049835 
0.700548 0.843639 0.049436 
0.307786 0.157543 0.050855 
0.839193 0.302301 0.049355 
0.146214 0.701441 0.050579 
0.162852 0.227535 0.049832 
0.845385 0.769460 0.050336 
0.769995 0.159244 0.049252 
0.223662 0.843220 0.050557 
0.667954 0.241387 0.048950 
0.328018 0.765036 0.050849 
0.694502 0.358260 0.048899 
0.300672 0.646820 0.050947 
0.939527 0.601165 0.050965 
0.605822 0.063941 0.049761 
0.393090 0.943248 0.049909 
0.057558 0.603507 0.049625 
0.697989 0.435536 0.049093 
0.301588 0.560934 0.050766 
0.064146 0.045484 0.049708 
0.940153 0.052055 0.051177 
0.955661 0.937011 0.050037 
0.049181 0.943908 0.049179 
0.780717 0.943698 0.049108 
0.059495 0.225004 0.048922 
0.234842 0.051913 0.051077 
0.949201 0.764341 0.050901 
0.767628 0.055849 0.049586 
0.225068 0.945958 0.050110 
0.942793 0.224943 0.050391 
0.051304 0.769494 0.049979 
0.224814 0.158195 0.050533 
0.780260 0.845703 0.049679 
0.844058 0.224304 0.049569 
0.152238 0.774434 0.050560 
0.556483 0.951010 0.049099 
[...]
POINT_DATA 1221
SCALARS u float 1
LOOKUP_TABLE default
0.163496
0.068212
0.162095
0.067321
0.158677
0.071320
0.158357
0.069308
0.145776
0.132468
0.119593
0.107533
0.096041
0.085370
0.076173
0.068428
0.061633
0.055890
0.051239
0.047949
0.045611
0.044658
0.045285
0.047392
0.051275
0.056457
0.062658
0.150535
0.136993
0.123516
0.110339
0.098035
0.086838
0.076484
0.067395
0.059475
0.052602
0.047615
0.044225
0.042283
0.041829
0.043211
0.046162
0.049610
0.054657
0.060930
0.160966
0.068250
0.146902
0.134427
0.121392
0.108519
0.095760
0.084044
0.072122
0.061384
0.051068
0.042017
0.035143
0.032309
0.034298
0.039557
0.045835
0.052319
0.057961
0.062878
0.067312
0.151678
0.138938
0.125330
0.111401
0.097979
0.084547
0.070299
0.057264
0.045818
0.036723
0.031694
0.031007
0.034461
0.039466
0.043763
0.048001
0.053267
0.058611
0.063575
0.069683
0.064588
0.058133
0.052899
0.048770
0.046009
0.045393
0.045390
0.047275
0.050492
0.055005
0.060920
0.067431
0.075832
0.085030
0.095358
0.107066
0.119403
0.132192
0.145496
0.061827
0.055429
0.050533
0.046610
0.043877
0.042714
0.043143
0.044203
0.047140
0.051959
0.058732
0.066719
0.075692
0.085921
0.097054
0.109273
0.122361
0.135822
0.149180
0.160107
0.146859
0.134473
0.121417
0.108384
0.095292
0.082970
0.070446
0.060228
0.049863
0.041020
0.035072
0.032737
0.034601
0.039222
0.045019
0.051090
0.056929
0.061451
0.065734
0.150465
0.137909
0.124744
0.110710
0.096919
0.083500
0.069960
0.057045
0.046078
0.037428
0.032202
0.030923
0.033868
0.038487
0.043431
0.048793
0.054181
0.059122
0.063362
0.066214
0.067243
0.155109
0.154867
0.036560
0.102804
0.076530
0.043424
0.089866
0.064234
0.062492
0.047039
0.052623
0.052839
0.057963
0.129888
0.116396
0.032324
0.140949
0.041684
0.036575
0.032148
0.049497
0.013870
0.013203
0.036071
0.036060
0.044089
0.020433
0.043911
0.020950
0.062522
0.036748
0.062387
0.036207
0.042500
0.042410
0.040358
0.040578
0.039171
0.039615
0.030273
0.031534
0.029837
0.038909
0.038987
0.030757
0.026376
0.046940
0.047055
0.027424
0.043450
0.043713
0.033843
0.034444
0.061533
0.060400
0.063055
0.037880
0.058466
0.036633
0.035597
0.036890
0.034659
0.034857
0.029882
0.029365
0.043060
0.043390
0.043703
0.043612
0.105923
0.049549
0.105856
0.048416
0.040340
0.040932
0.040448
0.037467
0.032977
0.032759
0.032686
0.031621
0.027500
0.025152
0.036008
0.035458
0.048525
0.048999
0.003624
0.002729
0.030352
0.041832
0.031030
0.042044
0.086559
0.086552
0.086234
0.043360
0.086665
0.042997
0.042463
0.041310
0.026884
0.026996
0.045403
0.044803
0.049375
0.049968
0.049630
0.038290
0.056703
0.036008
0.035869
0.039202
0.043257
0.019830
0.043021
0.026889
0.017170
0.039740
0.040136
0.027213
0.047314
0.048004
0.031141
0.030694
0.027198
0.028105
0.059696
0.062166
0.059522
0.039667
0.015433
0.045994
0.045784
0.037362
0.037400
0.016900
0.046422
0.046844
0.046497
0.046524
0.041343
0.045331
0.041984
0.044214
0.043542
0.025435
0.043132
0.027304
0.039915
0.040398
0.032688
0.032656
0.049184
0.050831
0.035005
0.034392
0.039378
0.038988
0.036651
0.036454
0.054466
0.036374
0.036433
0.041837
0.033131
0.033541
0.130169
0.059265
0.130096
0.057770
0.083534
0.083295
0.083826
0.083905
0.041583
0.040510
0.043297
0.042453
0.052453
0.052879
0.034800
0.034647
0.046876
0.043998
0.047891
0.051296
0.036984
0.038354
0.036030
0.036004
0.042154
0.041893
0.046671
0.047117
0.029512
0.036176
0.036125
0.013672
0.013174
0.025181
0.025402
0.108168
0.109729
0.050007
0.108714
0.051898
0.108923
0.048597
0.051577
0.038702
0.034740
0.025323
0.028193
0.044938
0.044943
0.025699
0.042821
0.043049
0.032453
0.019075
0.018706
0.034149
0.033675
0.008158
0.007980
0.034349
0.034766
0.028747
0.072011
0.037258
0.041547
0.036643
0.083461
0.042388
0.083385
0.041393
0.041982
0.041778
0.035033
0.040558
0.043563
0.043476
0.033829
0.033089
0.040805
0.040813
0.038280
0.041479
0.038327
0.035341
0.015406
0.047675
0.048350
0.038407
0.038737
0.018450
0.018396
0.038507
0.038687
0.069859
0.047759
0.049419
0.035311
0.037600
0.053460
0.037606
0.045494
0.069351
0.038804
0.037931
0.042588
0.035866
0.042675
0.036022
0.046921
0.044461
0.044277
0.049143
0.049610
0.015541
0.072451
0.077212
0.073062
0.042057
0.070730
0.038996
0.038211
0.048477
0.048097
0.025879
0.025376
0.058553
0.062327
0.060316
0.042276
0.016083
0.024314
0.014715
0.086501
0.086319
0.043309
0.042330
0.067017
0.020668
0.021615
0.032872
0.032270
0.101326
0.102524
0.047618
0.101658
0.101391
0.048875
0.046322
0.047592
0.040843
0.040630
0.034062
0.021832
0.025182
0.048868
0.048877
0.045628
0.045930
0.016202
0.010316
0.045650
0.046081
0.045334
0.046913
0.046867
0.045192
0.036228
0.036467
0.030131
0.030734
0.035594
0.070558
0.035676
0.043015
0.038155
0.038707
0.044055
0.036678
0.036571
0.070678
0.039366
0.038439
0.042272
0.042433
0.024041
0.052088
0.058645
0.053192
0.043610
0.042826
0.029664
0.042563
0.030197
0.041166
0.028748
0.041044
0.030413
0.052637
0.070273
0.032062
0.031566
0.044176
0.036377
0.048311
0.048802
0.070207
0.038606
0.037590
0.016113
0.045652
0.046744
0.034757
0.043364
0.043847
0.026381
0.048384
0.044567
0.043522
0.051351
0.030540
0.030249
0.054518
0.035452
0.035300
0.041876
0.123841
0.125028
0.056044
0.124698
0.057758
0.124010
0.054492
0.056452
0.041520
0.032800
0.030307
0.046231
0.038474
0.038428
0.045430
0.045977
0.037240
0.019325
0.019171
0.044286
0.044000
0.024106
0.042367
0.028286
0.045829
0.038385
0.043152
0.042979
0.042349
0.042549
0.045786
0.034864
0.027509
0.028366
0.021995
0.068648
0.072622
0.069750
0.042993
0.038722
0.029231
0.038908
0.052775
0.039906
0.049686
0.039137
0.040977
0.040847
0.009684
0.031575
0.030545
0.069243
0.034488
0.029342
0.042501
0.041794
0.032575
0.034458
0.032065
0.033595
0.034104
0.033414
0.044930
0.040126
0.035389
0.034282
0.046190
0.046312
0.035692
0.029012
0.049945
0.047938
0.034440
0.031958
0.054522
0.055331
0.036890
0.020465
0.064973
0.034585
0.043346
0.034696
0.144395
0.065174
0.144212
0.063484
0.044894
0.044862
0.029087
0.021637
0.022309
0.034347
0.033922
0.047444
0.046998
0.039533
0.052025
0.038014
0.053709
0.096347
0.046152
0.096220
0.045353
0.036952
0.036555
0.046118
0.046478
0.066469
0.033919
0.043930
0.041055
0.044124
0.043305
0.154437
0.154333
0.066186
0.067760
0.055582
0.044298
0.102097
0.114671
0.127564
0.140817
0.046370
0.049611
0.054197
0.059213
0.043947
0.050882
0.047340
0.044881
0.063356
0.071126
0.090884
0.080779
0.067257
0.068717
0.155961
0.155395
0.036760
0.090709
0.058155
0.052852
0.063095
0.047645
0.116823
0.130119
0.103527
0.141468
0.064901
0.043832
0.077558
0.053349
0.032312
0.036742
0.042093
0.031853
0.051246
0.013752
0.013891
0.037109
0.036076
0.042804
0.018532
0.043078
0.018945
0.066540
0.033386
0.066168
0.034262
0.043011
0.042868
0.042213
0.041585
0.037890
0.037583
0.030054
0.028596
0.029039
0.038907
0.038097
0.028371
0.026508
0.026301
0.048337
0.048269
0.040803
0.040424
0.030235
0.031551
0.063623
0.062549
0.064865
0.035003
0.060671
0.034639
0.034232
0.034629
0.034099
0.034405
0.030991
0.030290
0.043942
0.043923
0.044390
0.043977
0.109653
0.046185
0.109190
0.046547
0.038726
0.038856
0.038620
0.033469
0.034442
0.033876
0.030835
0.031655
0.029464
0.026057
0.035694
0.034990
0.050233
0.050226
0.002682
0.001601
0.031014
0.031172
0.043870
0.043382
0.089935
0.090044
0.089251
0.040364
0.089754
0.039154
0.040638
0.038946
0.026954
0.045113
0.027714
0.045935
0.046546
0.046775
0.048556
0.035493
0.056847
0.035856
0.034767
0.036115
0.042203
0.017424
0.042562
0.023594
0.015120
0.037749
0.037691
0.024494
0.049233
0.049292
0.027796
0.030168
0.029706
0.027869
0.059090
0.063066
0.060358
0.036940
0.014539
0.045992
0.046289
0.038317
0.038467
0.015459
0.048252
0.048157
0.047771
0.047756
0.038951
0.042436
0.038187
0.040674
0.041450
0.022123
0.041485
0.023864
0.040165
0.040933
0.029978
0.031106
0.051579
0.053039
0.032902
0.033259
0.039439
0.038929
0.036319
0.035647
0.052967
0.035409
0.035162
0.037851
0.025847
0.026559
0.134738
0.055754
0.133279
0.055472
0.085461
0.085000
0.085667
0.086097
0.038502
0.038998
0.040690
0.040386
0.054080
0.055067
0.032825
0.032787
0.043935
0.040868
0.043504
0.049115
0.038152
0.038930
0.036729
0.035240
0.024783
0.041107
0.048117
0.047886
0.027779
0.040869
0.023260
0.013823
0.013587
0.035759
0.039757
0.112304
0.113289
0.046992
0.111374
0.047611
0.111861
0.046946
0.049179
0.034635
0.035253
0.026591
0.045709
0.045520
0.037779
0.037038
0.039989
0.039816
0.028917
0.020584
0.020046
0.034491
0.033706
0.009779
0.008960
0.033010
0.032799
0.027628
0.073506
0.036758
0.038414
0.035731
0.087369
0.038456
0.086370
0.038924
0.041489
0.042104
0.041465
0.041144
0.045293
0.045662
0.031750
0.032208
0.041719
0.041035
0.037520
0.040450
0.037943
0.031830
0.014630
0.049596
0.049649
0.019410
0.018774
0.038881
0.038111
0.073162
0.046932
0.046607
0.032235
0.035241
0.051242
0.034931
0.041746
0.072262
0.034939
0.035584
0.040460
0.032677
0.040021
0.032252
0.047329
0.043911
0.044469
0.050931
0.050891
0.014578
0.073846
0.078544
0.074441
0.039566
0.024169
0.073049
0.035742
0.036348
0.049729
0.049767
0.022166
0.035782
0.035223
0.058222
0.062600
0.057893
0.039674
0.014664
0.023968
0.014447
0.090181
0.089352
0.039764
0.040317
0.069767
0.021740
0.021454
0.032901
0.032197
0.104540
0.105083
0.044974
0.104747
0.104102
0.044758
0.044798
0.045172
0.031580
0.042542
0.036341
0.025760
0.021001
0.024518
0.021542
0.050183
0.050154
0.047464
0.044548
0.047226
0.044024
0.013944
0.008268
0.047216
0.047135
0.045032
0.047074
0.045068
0.047252
0.036882
0.031044
0.030955
0.034638
0.071005
0.035792
0.039691
0.036908
0.036824
0.043537
0.035643
0.036823
0.072864
0.036423
0.036810
0.039802
0.039855
0.024555
0.049202
0.057513
0.049185
0.040571
0.041295
0.027166
0.041377
0.026213
0.040226
0.026937
0.040459
0.027016
0.053818
0.073370
0.031880
0.031096
0.050078
0.050126
0.073198
0.034789
0.035189
0.013701
0.043673
0.043576
0.031795
0.045345
0.039832
0.040518
0.048793
0.032850
0.028813
0.028812
0.055028
0.035679
0.034556
0.040277
0.128465
0.129084
0.052643
0.127965
0.053972
0.127383
0.052387
0.054391
0.039295
0.044467
0.030666
0.042866
0.019201
0.039668
0.038904
0.040222
0.046920
0.046502
0.034225
0.042962
0.043264
0.020598
0.019343
0.021327
0.042936
0.035016
0.039397
0.031968
0.043361
0.043468
0.046618
0.046327
0.027599
0.027521
0.068901
0.073450
0.069747
0.040472
0.036553
0.026433
0.036610
0.036632
0.050115
0.035903
0.046236
0.036587
0.040912
0.040730
0.008300
0.029720
0.029805
0.030329
0.072723
0.032473
0.043719
0.043629
0.033731
0.032607
0.033812
0.032522
0.040687
0.039955
0.046995
0.041072
0.033580
0.033825
0.046759
0.046636
0.036114
0.036196
0.051495
0.048956
0.031326
0.031868
0.055518
0.055751
0.034191
0.017531
0.064706
0.034344
0.039784
0.033781
0.149127
0.061937
0.147882
0.061354
0.044716
0.044563
0.022097
0.022547
0.034569
0.033801
0.031445
0.030625
0.048262
0.048484
0.038487
0.050852
0.035172
0.050764
0.099921
0.042462
0.099293
0.042902
0.037168
0.036556
0.047432
0.047751
0.067950
0.041057
0.037772
0.040887
0.040594
0.064880
0.066150
0.155343
0.154879
0.052444
0.091686
0.045545
0.048459
0.053005
0.058601
0.103104
0.115382
0.128138
0.139838
0.081139
0.057459
0.072011
0.063963
0.044852
0.047545
0.043659
0.043487
