# vtk DataFile Version 2.0
Unstructured Grid Example
ASCII
DATASET UNSTRUCTURED_GRID
POINTS 1221 float
-0.012069 0.010767 0.000541 
1.005708 0.003037 -0.001945 
0.988069 1.010728 -0.000029 
0.005751 1.003024 0.001478 
-0.011626 0.010546 0.050542 
1.006183 0.002797 0.048057 
0.988331 1.010466 0.049970 
0.006102 1.002765 0.051478 
-0.009918 0.060452 0.050773 
-0.008210 0.110172 0.051026 
-0.006549 0.159779 0.051266 
-0.005023 0.209277 0.051415 
-0.003533 0.258687 0.051558 
-0.002206 0.307986 0.051661 
-0.001021 0.357269 0.051724 
0.000012 0.406552 0.051715 
0.000868 0.455820 0.051608 
0.001567 0.505115 0.051411 
0.002102 0.554473 0.051140 
0.002533 0.603920 0.050860 
0.002881 0.653425 0.050589 
0.003176 0.703047 0.050409 
0.003490 0.752789 0.050367 
0.003841 0.802649 0.050482 
0.004278 0.852645 0.050679 
0.004812 0.902685 0.050930 
0.005435 0.952733 0.051208 
-0.010370 0.060673 0.000752 
-0.008641 0.110407 0.000949 
-0.006968 0.159981 0.001143 
-0.005386 0.209414 0.001289 
-0.003921 0.258767 0.001390 
-0.002562 0.308077 0.001440 
-0.001380 0.357291 0.001501 
-0.000378 0.406491 0.001491 
0.000462 0.455698 0.001404 
0.001187 0.504925 0.001203 
0.001738 0.554273 0.000967 
0.002177 0.603733 0.000698 
0.002558 0.653279 0.000469 
0.002851 0.702985 0.000322 
0.003168 0.752855 0.000326 
0.003560 0.802831 0.000439 
0.003952 0.852836 0.000670 
0.004465 0.902908 0.000934 
0.005097 0.952991 0.001201 
-0.011841 0.010647 0.025540 
0.005926 1.002888 0.026476 
0.038466 0.008853 0.050086 
0.088744 0.007086 0.049619 
0.139242 0.005290 0.049188 
0.189936 0.003564 0.048823 
0.240826 0.001867 0.048516 
0.291864 0.000301 0.048292 
0.343158 -0.000999 0.048224 
0.394532 -0.002084 0.048363 
0.446046 -0.002842 0.048643 
0.497639 -0.003280 0.049018 
0.549231 -0.003351 0.049470 
0.600691 -0.003121 0.049908 
0.652115 -0.002647 0.050217 
0.703353 -0.001984 0.050393 
0.754377 -0.001150 0.050320 
0.805171 -0.000276 0.050007 
0.855686 0.000609 0.049534 
0.905987 0.001402 0.049036 
0.956137 0.002137 0.048529 
0.038029 0.009060 0.000112 
0.088349 0.007300 -0.000285 
0.138904 0.005512 -0.000621 
0.189687 0.003785 -0.000954 
0.240613 0.002116 -0.001206 
0.291758 0.000560 -0.001336 
0.343216 -0.000736 -0.001362 
0.394760 -0.001794 -0.001207 
0.446365 -0.002558 -0.000899 
0.498000 -0.002993 -0.000507 
0.549580 -0.003108 -0.000090 
0.600972 -0.002897 0.000285 
0.652238 -0.002504 0.000599 
0.703376 -0.001837 0.000696 
0.754170 -0.001030 0.000563 
0.804747 -0.000111 0.000158 
0.855201 0.000792 -0.000346 
0.905498 0.001619 -0.000901 
0.955651 0.002364 -0.001441 
1.005943 0.002914 0.023059 
1.005503 0.052776 0.048303 
1.004874 0.102705 0.048573 
1.004347 0.152664 0.048807 
1.003917 0.202657 0.049049 
1.003543 0.252762 0.049254 
1.003240 0.303044 0.049347 
1.002903 0.353374 0.049388 
1.002534 0.403873 0.049312 
1.002087 0.454459 0.049140 
1.001528 0.505113 0.048923 
1.000844 0.555835 0.048733 
0.999971 0.606531 0.048626 
0.998922 0.657297 0.048609 
0.997685 0.707984 0.048684 
0.996360 0.758623 0.048780 
0.994909 0.809234 0.048943 
0.993350 0.859735 0.049165 
0.991720 0.910115 0.049415 
0.990008 0.960367 0.049699 
1.005058 0.053006 -0.001682 
1.004405 0.102936 -0.001440 
1.003928 0.152867 -0.001172 
1.003491 0.202870 -0.000926 
1.003128 0.252932 -0.000694 
1.002841 0.303082 -0.000550 
1.002545 0.353395 -0.000486 
1.002177 0.403758 -0.000533 
1.001730 0.454278 -0.000689 
1.001177 0.504930 -0.000869 
1.000487 0.555695 -0.001062 
0.999629 0.606493 -0.001147 
0.998639 0.657274 -0.001170 
0.997488 0.708043 -0.001157 
0.996161 0.758743 -0.001055 
0.994695 0.809382 -0.000911 
0.993131 0.859948 -0.000735 
0.991453 0.910364 -0.000528 
0.989757 0.960632 -0.000281 
0.988208 1.010587 0.024969 
0.938414 1.008776 0.050238 
0.888706 1.007024 0.050524 
0.839213 1.005235 0.050824 
0.789919 1.003511 0.051069 
0.740835 1.001844 0.051254 
0.691911 1.000358 0.051374 
0.643238 0.999061 0.051420 
0.594572 0.997960 0.051385 
0.546097 0.997207 0.051150 
0.497711 0.996774 0.050917 
0.449295 0.996665 0.050658 
0.400723 0.996866 0.050394 
0.352121 0.997317 0.050187 
0.303325 0.997997 0.050059 
0.254291 0.998802 0.050078 
0.205041 0.999681 0.050236 
0.155587 1.000546 0.050494 
0.105875 1.001358 0.050799 
0.056056 1.002097 0.051124 
0.938170 1.009046 0.000215 
0.888454 1.007270 0.000427 
0.838963 1.005498 0.000648 
0.789739 1.003757 0.000827 
0.740685 1.002076 0.000978 
0.691819 1.000548 0.001040 
0.643198 0.999232 0.001049 
0.594737 0.998182 0.000935 
0.546319 0.997401 0.000706 
0.497920 0.996965 0.000432 
0.449480 0.996864 0.000235 
0.400915 0.997079 0.000002 
0.352237 0.997511 -0.000194 
0.303338 0.998182 -0.000250 
0.254178 0.998998 -0.000143 
0.204827 0.999868 0.000058 
0.155295 1.000763 0.000374 
0.105581 1.001602 0.000732 
0.055711 1.002346 0.001102 
0.030180 1.002599 0.020189 
0.025782 1.002575 0.036753 
0.963888 1.009813 0.018985 
0.968484 1.009875 0.035490 
0.480045 0.996818 0.025583 
0.765274 1.002806 0.026036 
0.667531 0.999771 0.026245 
0.522690 0.997081 0.025805 
0.716264 1.001183 0.026184 
0.618924 0.998596 0.026242 
0.080825 1.001861 0.025933 
0.229606 0.999321 0.025045 
0.570535 0.997686 0.026048 
0.180218 1.000216 0.025277 
0.130605 1.001069 0.025599 
0.863791 1.006268 0.025600 
0.814426 1.004494 0.025853 
0.376483 0.997166 0.025083 
0.906782 1.007814 0.025384 
0.278826 0.998457 0.024917 
0.327799 0.997705 0.024928 
0.425139 0.996837 0.025319 
0.501875 0.495476 0.049868 
0.291529 0.293909 0.049577 
0.706852 0.704065 0.050158 
0.711439 0.288329 0.051129 
0.293368 0.706819 0.049058 
0.501268 0.777051 0.049953 
0.786428 0.498165 0.050407 
0.499411 0.218902 0.050084 
0.226301 0.502629 0.049659 
0.163275 0.174390 0.049854 
0.834608 0.169664 0.050392 
0.825334 0.834637 0.049965 
0.172569 0.830265 0.049598 
0.564636 0.636533 0.050024 
0.437328 0.355303 0.049757 
0.644547 0.434298 0.050753 
0.355546 0.563747 0.049223 
0.636699 0.844579 0.050642 
0.357641 0.151539 0.049153 
0.151156 0.363516 0.050452 
0.849685 0.361108 0.050595 
0.846075 0.644204 0.049597 
0.642942 0.150099 0.050716 
0.359927 0.842849 0.049525 
0.156649 0.635817 0.049584 
0.679549 0.579228 0.050368 
0.562167 0.326457 0.050579 
0.440809 0.664812 0.049368 
0.323116 0.418066 0.049468 
0.531851 0.878190 0.050522 
0.463253 0.114067 0.049454 
0.884522 0.468145 0.049955 
0.121409 0.468623 0.050563 
0.738348 0.897596 0.050717 
0.105138 0.263487 0.050678 
0.252554 0.098809 0.049000 
0.900042 0.257116 0.050125 
0.886925 0.742102 0.049328 
0.740062 0.108528 0.050788 
0.265912 0.887754 0.049573 
0.113641 0.739851 0.049614 
0.600425 0.736647 0.050201 
0.398362 0.256612 0.049578 
0.747739 0.403359 0.050949 
0.254202 0.596595 0.049236 
0.600187 0.517071 0.050364 
0.399903 0.471170 0.049446 
0.613244 0.249978 0.050849 
0.389558 0.741861 0.049260 
0.089614 0.101587 0.050117 
0.907081 0.096138 0.049416 
0.897247 0.909215 0.049985 
0.103169 0.906706 0.050360 
0.436695 0.899094 0.050119 
0.904062 0.567045 0.049414 
0.562976 0.092919 0.050087 
0.099390 0.565903 0.050319 
0.255476 0.202706 0.049460 
0.738632 0.797682 0.050227 
0.800259 0.257537 0.050869 
0.211970 0.744684 0.049221 
0.194390 0.281005 0.049983 
0.796535 0.717948 0.049821 
0.717063 0.204225 0.051062 
0.287764 0.790952 0.049216 
0.503718 0.407413 0.050060 
0.498930 0.583799 0.049733 
0.241113 0.365526 0.049810 
0.759378 0.634542 0.050055 
0.691497 0.498504 0.050586 
0.648045 0.341868 0.050983 
0.310762 0.502654 0.049361 
0.356162 0.651192 0.049090 
0.075087 0.190149 0.050700 
0.169453 0.088206 0.049396 
0.809913 0.922848 0.050534 
0.923116 0.184034 0.049672 
0.911865 0.827680 0.049502 
0.825239 0.082649 0.050133 
0.084730 0.819189 0.050028 
0.189393 0.913894 0.049913 
0.652244 0.652829 0.050251 
0.348460 0.341964 0.049526 
0.514753 0.692108 0.049809 
0.486665 0.299082 0.050113 
0.606100 0.914707 0.050980 
0.385385 0.080559 0.048857 
0.078636 0.399411 0.051069 
0.919886 0.392515 0.049971 
0.923939 0.665944 0.049113 
0.662360 0.072050 0.050559 
0.341592 0.921986 0.049795 
0.077497 0.663844 0.050015 
0.431663 0.817535 0.049769 
0.822120 0.567484 0.049942 
0.569015 0.173696 0.050426 
0.182106 0.567658 0.049703 
0.191580 0.432751 0.050055 
0.572081 0.814754 0.050388 
0.425017 0.175413 0.049496 
0.824176 0.427657 0.050545 
0.567376 0.453293 0.050322 
0.437268 0.537800 0.049459 
0.777040 0.330346 0.051048 
0.228263 0.667377 0.049173 
0.665535 0.779433 0.050305 
0.331291 0.216580 0.049362 
0.671580 0.929557 0.051069 
0.067085 0.323770 0.051088 
0.317032 0.068869 0.048688 
0.933493 0.324997 0.049949 
0.747070 0.558978 0.050297 
0.448766 0.731965 0.049544 
0.552870 0.258914 0.050497 
0.615368 0.591376 0.050262 
0.387214 0.402469 0.049527 
0.260043 0.442507 0.049642 
0.587309 0.388744 0.050603 
0.416459 0.602928 0.049308 
0.452228 0.423748 0.049756 
0.550219 0.567876 0.050034 
0.483370 0.930880 0.050498 
0.936269 0.519370 0.049357 
0.513721 0.061463 0.049530 
0.067262 0.519052 0.050808 
0.499424 0.834271 0.050184 
0.839811 0.508979 0.050082 
0.499444 0.148067 0.049879 
0.155530 0.503046 0.050164 
0.692840 0.842108 0.050559 
0.300071 0.156083 0.049153 
0.845480 0.303344 0.050639 
0.152448 0.702849 0.049426 
0.156368 0.234850 0.050166 
0.838563 0.776890 0.049667 
0.776360 0.156850 0.050742 
0.229926 0.840708 0.049448 
0.671975 0.235000 0.051040 
0.331986 0.758593 0.049159 
0.699278 0.353209 0.051091 
0.305505 0.641757 0.049062 
0.939707 0.611823 0.049044 
0.607207 0.056857 0.050237 
0.394482 0.936140 0.050090 
0.063051 0.609711 0.050372 
0.702502 0.431089 0.050899 
0.306166 0.556328 0.049241 
0.044783 0.062655 0.050289 
0.950956 0.056144 0.048834 
0.936209 0.954070 0.049963 
0.059827 0.947905 0.050814 
0.764841 0.948257 0.050884 
0.051839 0.239536 0.051068 
0.218981 0.056577 0.048933 
0.941174 0.778859 0.049107 
0.775602 0.053822 0.050410 
0.232832 0.943818 0.049891 
0.950229 0.229213 0.049613 
0.058588 0.773760 0.050021 
0.215204 0.162112 0.049472 
0.770385 0.849260 0.050318 
0.850879 0.225094 0.050427 
0.159015 0.774997 0.049445 
0.549933 0.944624 0.050892 
[...]
POINT_DATA 1221
SCALARS u float 1
LOOKUP_TABLE default
0.163496
0.068212
0.162095
0.067321
0.158677
0.071320
0.158357
0.069308
0.145776
0.132468
0.119593
0.107533
0.096041
0.085370
0.076173
0.068428
0.061633
0.055890
0.051239
0.047949
0.045611
0.044658
0.045285
0.047392
0.051275
0.056457
0.062658
0.150535
0.136993
0.123516
0.110339
0.098035
0.086838
0.076484
0.067395
0.059475
0.052602
0.047615
0.044225
0.042283
0.041829
0.043211
0.046162
0.049610
0.054657
0.060930
0.160966
0.068250
0.146902
0.134427
0.121392
0.108519
0.095760
0.084044
0.072122
0.061384
0.051068
0.042017
0.035143
0.032309
0.034298
0.039557
0.045835
0.052319
0.057961
0.062878
0.067312
0.151678
0.138938
0.125330
0.111401
0.097979
0.084547
0.070299
0.057264
0.045818
0.036723
0.031694
0.031007
0.034461
0.039466
0.043763
0.048001
0.053267
0.058611
0.063575
0.069683
0.064588
0.058133
0.052899
0.048770
0.046009
0.045393
0.045390
0.047275
0.050492
0.055005
0.060920
0.067431
0.075832
0.085030
0.095358
0.107066
0.119403
0.132192
0.145496
0.061827
0.055429
0.050533
0.046610
0.043877
0.042714
0.043143
0.044203
0.047140
0.051959
0.058732
0.066719
0.075692
0.085921
0.097054
0.109273
0.122361
0.135822
0.149180
0.160107
0.146859
0.134473
0.121417
0.108384
0.095292
0.082970
0.070446
0.060228
0.049863
0.041020
0.035072
0.032737
0.034601
0.039222
0.045019
0.051090
0.056929
0.061451
0.065734
0.150465
0.137909
0.124744
0.110710
0.096919
0.083500
0.069960
0.057045
0.046078
0.037428
0.032202
0.030923
0.033868
0.038487
0.043431
0.048793
0.054181
0.059122
0.063362
0.066214
0.067243
0.155109
0.154867
0.036560
0.102804
0.076530
0.043424
0.089866
0.064234
0.062492
0.047039
0.052623
0.052839
0.057963
0.129888
0.116396
0.032324
0.140949
0.041684
0.036575
0.032148
0.049497
0.013870
0.013203
0.036071
0.036060
0.044089
0.020433
0.043911
0.020950
0.062522
0.036748
0.062387
0.036207
0.042500
0.042410
0.040358
0.040578
0.039171
0.039615
0.030273
0.031534
0.029837
0.038909
0.038987
0.030757
0.026376
0.046940
0.047055
0.027424
0.043450
0.043713
0.033843
0.034444
0.061533
0.060400
0.063055
0.037880
0.058466
0.036633
0.035597
0.036890
0.034659
0.034857
0.029882
0.029365
0.043060
0.043390
0.043703
0.043612
0.105923
0.049549
0.105856
0.048416
0.040340
0.040932
0.040448
0.037467
0.032977
0.032759
0.032686
0.031621
0.027500
0.025152
0.036008
0.035458
0.048525
0.048999
0.003624
0.002729
0.030352
0.041832
0.031030
0.042044
0.086559
0.086552
0.086234
0.043360
0.086665
0.042997
0.042463
0.041310
0.026884
0.026996
0.045403
0.044803
0.049375
0.049968
0.049630
0.038290
0.056703
0.036008
0.035869
0.039202
0.043257
0.019830
0.043021
0.026889
0.017170
0.039740
0.040136
0.027213
0.047314
0.048004
0.031141
0.030694
0.027198
0.028105
0.059696
0.062166
0.059522
0.039667
0.015433
0.045994
0.045784
0.037362
0.037400
0.016900
0.046422
0.046844
0.046497
0.046524
0.041343
0.045331
0.041984
0.044214
0.043542
0.025435
0.043132
0.027304
0.039915
0.040398
0.032688
0.032656
0.049184
0.050831
0.035005
0.034392
0.039378
0.038988
0.036651
0.036454
0.054466
0.036374
0.036433
0.041837
0.033131
0.033541
0.130169
0.059265
0.130096
0.057770
0.083534
0.083295
0.083826
0.083905
0.041583
0.040510
0.043297
0.042453
0.052453
0.052879
0.034800
0.034647
0.046876
0.043998
0.047891
0.051296
0.036984
0.038354
0.036030
0.036004
0.042154
0.041893
0.046671
0.047117
0.029512
0.036176
0.036125
0.013672
0.013174
0.025181
0.025402
0.108168
0.109729
0.050007
0.108714
0.051898
0.108923
0.048597
0.051577
0.038702
0.034740
0.025323
0.028193
0.044938
0.044943
0.025699
0.042821
0.043049
0.032453
0.019075
0.018706
0.034149
0.033675
0.008158
0.007980
0.034349
0.034766
0.028747
0.072011
0.037258
0.041547
0.036643
0.083461
0.042388
0.083385
0.041393
0.041982
0.041778
0.035033
0.040558
0.043563
0.043476
0.033829
0.033089
0.040805
0.040813
0.038280
0.041479
0.038327
0.035341
0.015406
0.047675
0.048350
0.038407
0.038737
0.018450
0.018396
0.038507
0.038687
0.069859
0.047759
0.049419
0.035311
0.037600
0.053460
0.037606
0.045494
0.069351
0.038804
0.037931
0.042588
0.035866
0.042675
0.036022
0.046921
0.044461
0.044277
0.049143
0.049610
0.015541
0.072451
0.077212
0.073062
0.042057
0.070730
0.038996
0.038211
0.048477
0.048097
0.025879
0.025376
0.058553
0.062327
0.060316
0.042276
0.016083
0.024314
0.014715
0.086501
0.086319
0.043309
0.042330
0.067017
0.020668
0.021615
0.032872
0.032270
0.101326
0.102524
0.047618
0.101658
0.101391
0.048875
0.046322
0.047592
0.040843
0.040630
0.034062
0.021832
0.025182
0.048868
0.048877
0.045628
0.045930
0.016202
0.010316
0.045650
0.046081
0.045334
0.046913
0.046867
0.045192
0.036228
0.036467
0.030131
0.030734
0.035594
0.070558
0.035676
0.043015
0.038155
0.038707
0.044055
0.036678
0.036571
0.070678
0.039366
0.038439
0.042272
0.042433
0.024041
0.052088
0.058645
0.053192
0.043610
0.042826
0.029664
0.042563
0.030197
0.041166
0.028748
0.041044
0.030413
0.052637
0.070273
0.032062
0.031566
0.044176
0.036377
0.048311
0.048802
0.070207
0.038606
0.037590
0.016113
0.045652
0.046744
0.034757
0.043364
0.043847
0.026381
0.048384
0.044567
0.043522
0.051351
0.030540
0.030249
0.054518
0.035452
0.035300
0.041876
0.123841
0.125028
0.056044
0.124698
0.057758
0.124010
0.054492
0.056452
0.041520
0.032800
0.030307
0.046231
0.038474
0.038428
0.045430
0.045977
0.037240
0.019325
0.019171
0.044286
0.044000
0.024106
0.042367
0.028286
0.045829
0.038385
0.043152
0.042979
0.042349
0.042549
0.045786
0.034864
0.027509
0.028366
0.021995
0.068648
0.072622
0.069750
0.042993
0.038722
0.029231
0.038908
0.052775
0.039906
0.049686
0.039137
0.040977
0.040847
0.009684
0.031575
0.030545
0.069243
0.034488
0.029342
0.042501
0.041794
0.032575
0.034458
0.032065
0.033595
0.034104
0.033414
0.044930
0.040126
0.035389
0.034282
0.046190
0.046312
0.035692
0.029012
0.049945
0.047938
0.034440
0.031958
0.054522
0.055331
0.036890
0.020465
0.064973
0.034585
0.043346
0.034696
0.144395
0.065174
0.144212
0.063484
0.044894
0.044862
0.029087
0.021637
0.022309
0.034347
0.033922
0.047444
0.046998
0.039533
0.052025
0.038014
0.053709
0.096347
0.046152
0.096220
0.045353
0.036952
0.036555
0.046118
0.046478
0.066469
0.033919
0.043930
0.041055
0.044124
0.043305
0.154437
0.154333
0.066186
0.067760
0.055582
0.044298
0.102097
0.114671
0.127564
0.140817
0.046370
0.049611
0.054197
0.059213
0.043947
0.050882
0.047340
0.044881
0.063356
0.071126
0.090884
0.080779
0.067257
0.068717
0.155961
0.155395
0.036760
0.090709
0.058155
0.052852
0.063095
0.047645
0.116823
0.130119
0.103527
0.141468
0.064901
0.043832
0.077558
0.053349
0.032312
0.036742
0.042093
0.031853
0.051246
0.013752
0.013891
0.037109
0.036076
0.042804
0.018532
0.043078
0.018945
0.066540
0.033386
0.066168
0.034262
0.043011
0.042868
0.042213
0.041585
0.037890
0.037583
0.030054
0.028596
0.029039
0.038907
0.038097
0.028371
0.026508
0.026301
0.048337
0.048269
0.040803
0.040424
0.030235
0.031551
0.063623
0.062549
0.064865
0.035003
0.060671
0.034639
0.034232
0.034629
0.034099
0.034405
0.030991
0.030290
0.043942
0.043923
0.044390
0.043977
0.109653
0.046185
0.109190
0.046547
0.038726
0.038856
0.038620
0.033469
0.034442
0.033876
0.030835
0.031655
0.029464
0.026057
0.035694
0.034990
0.050233
0.050226
0.002682
0.001601
0.031014
0.031172
0.043870
0.043382
0.089935
0.090044
0.089251
0.040364
0.089754
0.039154
0.040638
0.038946
0.026954
0.045113
0.027714
0.045935
0.046546
0.046775
0.048556
0.035493
0.056847
0.035856
0.034767
0.036115
0.042203
0.017424
0.042562
0.023594
0.015120
0.037749
0.037691
0.024494
0.049233
0.049292
0.027796
0.030168
0.029706
0.027869
0.059090
0.063066
0.060358
0.036940
0.014539
0.045992
0.046289
0.038317
0.038467
0.015459
0.048252
0.048157
0.047771
0.047756
0.038951
0.042436
0.038187
0.040674
0.041450
0.022123
0.041485
0.023864
0.040165
0.040933
0.029978
0.031106
0.051579
0.053039
0.032902
0.033259
0.039439
0.038929
0.036319
0.035647
0.052967
0.035409
0.035162
0.037851
0.025847
0.026559
0.134738
0.055754
0.133279
0.055472
0.085461
0.085000
0.085667
0.086097
0.038502
0.038998
0.040690
0.040386
0.054080
0.055067
0.032825
0.032787
0.043935
0.040868
0.043504
0.049115
0.038152
0.038930
0.036729
0.035240
0.024783
0.041107
0.048117
0.047886
0.027779
0.040869
0.023260
0.013823
0.013587
0.035759
0.039757
0.112304
0.113289
0.046992
0.111374
0.047611
0.111861
0.046946
0.049179
0.034635
0.035253
0.026591
0.045709
0.045520
0.037779
0.037038
0.039989
0.039816
0.028917
0.020584
0.020046
0.034491
0.033706
0.009779
0.008960
0.033010
0.032799
0.027628
0.073506
0.036758
0.038414
0.035731
0.087369
0.038456
0.086370
0.038924
0.041489
0.042104
0.041465
0.041144
0.045293
0.045662
0.031750
0.032208
0.041719
0.041035
0.037520
0.040450
0.037943
0.031830
0.014630
0.049596
0.049649
0.019410
0.018774
0.038881
0.038111
0.073162
0.046932
0.046607
0.032235
0.035241
0.051242
0.034931
0.041746
0.072262
0.034939
0.035584
0.040460
0.032677
0.040021
0.032252
0.047329
0.043911
0.044469
0.050931
0.050891
0.014578
0.073846
0.078544
0.074441
0.039566
0.024169
0.073049
0.035742
0.036348
0.049729
0.049767
0.022166
0.035782
0.035223
0.058222
0.062600
0.057893
0.039674
0.014664
0.023968
0.014447
0.090181
0.089352
0.039764
0.040317
0.069767
0.021740
0.021454
0.032901
0.032197
0.104540
0.105083
0.044974
0.104747
0.104102
0.044758
0.044798
0.045172
0.031580
0.042542
0.036341
0.025760
0.021001
0.024518
0.021542
0.050183
0.050154
0.047464
0.044548
0.047226
0.044024
0.013944
0.008268
0.047216
0.047135
0.045032
0.047074
0.045068
0.047252
0.036882
0.031044
0.030955
0.034638
0.071005
0.035792
0.039691
0.036908
0.036824
0.043537
0.035643
0.036823
0.072864
0.036423
0.036810
0.039802
0.039855
0.024555
0.049202
0.057513
0.049185
0.040571
0.041295
0.027166
0.041377
0.026213
0.040226
0.026937
0.040459
0.027016
0.053818
0.073370
0.031880
0.031096
0.050078
0.050126
0.073198
0.034789
0.035189
0.013701
0.043673
0.043576
0.031795
0.045345
0.039832
0.040518
0.048793
0.032850
0.028813
0.028812
0.055028
0.035679
0.034556
0.040277
0.128465
0.129084
0.052643
0.127965
0.053972
0.127383
0.052387
0.054391
0.039295
0.044467
0.030666
0.042866
0.019201
0.039668
0.038904
0.040222
0.046920
0.046502
0.034225
0.042962
0.043264
0.020598
0.019343
0.021327
0.042936
0.035016
0.039397
0.031968
0.043361
0.043468
0.046618
0.046327
0.027599
0.027521
0.068901
0.073450
0.069747
0.040472
0.036553
0.026433
0.036610
0.036632
0.050115
0.035903
0.046236
0.036587
0.040912
0.040730
0.008300
0.029720
0.029805
0.030329
0.072723
0.032473
0.043719
0.043629
0.033731
0.032607
0.033812
0.032522
0.040687
0.039955
0.046995
0.041072
0.033580
0.033825
0.046759
0.046636
0.036114
0.036196
0.051495
0.048956
0.031326
0.031868
0.055518
0.055751
0.034191
0.017531
0.064706
0.034344
0.039784
0.033781
0.149127
0.061937
0.147882
0.061354
0.044716
0.044563
0.022097
0.022547
0.034569
0.033801
0.031445
0.030625
0.048262
0.048484
0.038487
0.050852
0.035172
0.050764
0.099921
0.042462
0.099293
0.042902
0.037168
0.036556
0.047432
0.047751
0.067950
0.041057
0.037772
0.040887
0.040594
0.064880
0.066150
0.155343
0.154879
0.052444
0.091686
0.045545
0.048459
0.053005
0.058601
0.103104
0.115382
0.128138
0.139838
0.081139
0.057459
0.072011
0.063963
0.044852
0.047545
0.043659
0.043487
