# vtk DataFile Version 2.0
Unstructured Grid Example
ASCII
DATASET UNSTRUCTURED_GRID
POINTS 507 float
0.000316 0.498102 -0.031973 
0.495982 0.001340 -0.037253 
0.000761 -0.494839 -0.043352 
-0.494382 0.000517 -0.041863 
-0.000019 0.498647 4.032101 
0.495983 0.001164 4.037505 
-0.000131 -0.495790 4.041778 
-0.495098 0.000945 4.039953 
0.190367 0.461105 -0.031722 
0.351180 0.352974 -0.032837 
0.458910 0.191762 -0.034837 
0.459107 -0.188470 -0.038845 
0.351373 -0.349137 -0.040805 
0.190837 -0.457598 -0.042292 
-0.189056 -0.457617 -0.043531 
-0.349354 -0.350773 -0.043020 
-0.456674 -0.189667 -0.043322 
-0.457265 0.190975 -0.038481 
-0.350590 0.351858 -0.035705 
-0.189511 0.460073 -0.033850 
0.190054 0.460861 4.032351 
0.351314 0.353189 4.033116 
0.458573 0.191753 4.034794 
0.458186 -0.188772 4.039104 
0.351088 -0.350355 4.040230 
0.189909 -0.457970 4.041684 
-0.189749 -0.458315 4.041688 
-0.350019 -0.351269 4.041161 
-0.457295 -0.189814 4.041757 
-0.457620 0.191492 4.037517 
-0.350748 0.352483 4.034712 
-0.189901 0.460401 4.032928 
-0.000475 0.491546 0.171861 
-0.001185 0.484045 0.381656 
-0.000617 0.481876 0.596284 
0.000267 0.484340 0.811544 
0.000601 0.490026 1.026033 
0.001587 0.497504 1.236069 
0.000614 0.504806 1.438835 
0.000183 0.509741 1.632253 
-0.000848 0.513229 1.816988 
-0.001040 0.515071 2.000140 
-0.000247 0.515717 2.182298 
0.000906 0.510371 2.370392 
0.001478 0.501969 2.564453 
0.000860 0.496867 2.762939 
-0.000960 0.491204 2.974530 
0.000242 0.485476 3.190365 
-0.000241 0.483310 3.402901 
-0.000183 0.483750 3.617551 
-0.000295 0.490869 3.828411 
0.000071 -0.492140 0.161750 
-0.000805 -0.487644 0.374681 
-0.000688 -0.483887 0.592837 
-0.000348 -0.484130 0.811085 
0.000169 -0.486055 1.026901 
0.000255 -0.492744 1.234529 
0.000680 -0.501184 1.435449 
0.000068 -0.509796 1.627481 
-0.000233 -0.516102 1.815058 
0.000121 -0.519264 1.999493 
0.000032 -0.515514 2.184120 
0.000239 -0.507922 2.371805 
0.000433 -0.498291 2.564614 
0.000457 -0.492738 2.763775 
0.000534 -0.487395 2.974049 
0.000051 -0.484483 3.188972 
-0.000083 -0.484168 3.406699 
-0.000609 -0.487268 3.623918 
-0.000317 -0.491956 3.837294 
0.491011 -0.000853 0.167118 
0.485262 -0.002727 0.378433 
0.481676 -0.002124 0.594557 
0.484510 -0.000456 0.811332 
0.490732 0.000892 1.025475 
0.496840 0.003509 1.236763 
0.503642 0.000981 1.440210 
0.507872 -0.000342 1.629148 
0.513720 -0.001833 1.815179 
0.517761 -0.002361 1.999244 
0.516238 -0.001285 2.181961 
0.509756 0.001199 2.370818 
0.501282 0.002101 2.564113 
0.495215 0.001274 2.763308 
0.490522 -0.000111 2.974895 
0.485092 -0.001002 3.188559 
0.481779 -0.001955 3.405326 
0.484465 -0.001805 3.622418 
0.490386 -0.000510 3.833318 
-0.491081 -0.001822 0.162870 
-0.486289 -0.002916 0.375752 
-0.483617 -0.002272 0.593566 
-0.484304 0.000027 0.811009 
-0.488139 0.002347 1.026315 
-0.494697 0.002988 1.235807 
-0.502289 0.001592 1.437244 
-0.509402 -0.000504 1.628623 
-0.514340 -0.001946 1.815103 
-0.518104 -0.002744 1.999519 
-0.515633 -0.001886 2.183552 
-0.509181 -0.000494 2.371590 
-0.500615 0.002332 2.565729 
-0.496401 0.002556 2.767338 
-0.489147 0.002730 2.975535 
-0.484945 -0.000089 3.189830 
-0.484392 -0.001904 3.406788 
-0.485371 -0.002916 3.624357 
-0.490275 -0.001025 3.836228 
0.339222 -0.342712 0.681255 
0.345996 -0.349438 0.172441 
0.356697 -0.355530 1.509456 
0.343442 -0.343144 0.955325 
0.361950 -0.362864 1.702644 
0.353065 -0.349013 1.245972 
0.365025 -0.367753 1.927056 
0.349147 -0.347393 2.765545 
0.361165 -0.359326 2.364740 
0.354091 -0.350511 2.588409 
0.364171 -0.365913 2.146625 
0.346787 -0.346294 2.907711 
0.353341 -0.330789 3.353325 
0.342604 -0.345540 3.651694 
0.197139 -0.450072 3.844531 
0.448869 -0.198820 3.841962 
0.157458 -0.462742 3.676857 
0.459680 -0.159398 3.675020 
0.169929 -0.458290 0.287631 
0.454976 -0.175438 0.290323 
0.190632 -0.456486 1.236103 
0.459642 -0.187204 1.236885 
0.194785 -0.480637 2.033307 
0.478910 -0.197446 2.033009 
0.149946 -0.475915 2.552130 
0.479847 -0.146754 2.551346 
0.467187 -0.147392 2.981844 
0.147180 -0.464882 2.981117 
0.447686 -0.182410 3.485704 
0.180057 -0.450169 3.486018 
0.206162 -0.438614 3.221209 
0.456249 -0.160255 3.246114 
0.445190 -0.189564 0.534780 
0.183540 -0.447693 0.533499 
0.456060 -0.158555 0.811425 
0.157069 -0.457590 0.810638 
0.455368 -0.180928 1.087458 
0.183245 -0.453150 1.086634 
0.192700 -0.460572 1.384360 
0.464131 -0.189480 1.385657 
0.469207 -0.194973 1.582243 
0.194535 -0.468038 1.579690 
0.181966 -0.482873 1.798479 
0.480939 -0.183668 1.799612 
0.186895 -0.473087 2.368030 
0.475378 -0.184941 2.366212 
0.188969 -0.454195 2.763346 
0.456893 -0.187681 2.763359 
0.337362 -0.348764 0.437515 
0.347755 -0.348567 3.905600 
0.365432 -0.319673 3.129191 
0.273429 -0.403202 3.059646 
0.231086 -0.459866 2.218830 
0.459525 -0.232120 2.218041 
0.094060 -0.508781 1.908952 
0.507233 -0.095972 1.910091 
0.098416 -0.483324 3.942536 
0.482859 -0.098617 3.938572 
0.272679 -0.423480 2.469501 
0.426761 -0.269905 2.468271 
0.185901 -0.457082 0.079960 
0.456275 -0.186500 0.083447 
-0.342145 -0.342139 0.779639 
-0.355615 -0.335428 0.299981 
-0.341380 -0.342812 0.580730 
-0.362139 -0.363248 1.703592 
-0.357020 -0.356581 1.519709 
-0.351031 -0.348144 1.266633 
-0.344906 -0.342550 1.026027 
-0.364889 -0.367407 1.905482 
-0.351024 -0.348750 2.768119 
-0.354109 -0.351530 2.575875 
-0.358825 -0.357303 2.420530 
-0.364526 -0.366873 2.065476 
-0.345618 -0.344251 2.963676 
-0.342115 -0.342790 3.259163 
-0.355121 -0.335086 3.698676 
-0.342234 -0.343329 3.425460 
-0.460756 -0.167789 3.808146 
-0.460914 -0.168327 0.189642 
-0.247581 -0.425058 3.848748 
-0.253473 -0.422071 0.143109 
-0.214078 -0.469978 2.159953 
-0.468979 -0.216212 2.159274 
-0.144356 -0.462184 0.822164 
-0.462189 -0.143667 0.821843 
-0.170961 -0.490125 1.989021 
-0.488691 -0.173643 1.988991 
-0.176768 -0.465452 2.559155 
-0.468176 -0.174378 2.560450 
-0.451697 -0.185115 2.970696 
-0.186530 -0.450289 2.969782 
-0.447963 -0.191421 0.381302 
-0.208217 -0.441099 0.375583 
-0.447017 -0.190735 3.614796 
-0.178831 -0.452713 3.590657 
-0.446110 -0.186953 0.588007 
-0.185460 -0.447030 0.588240 
-0.448537 -0.184693 3.340678 
-0.181193 -0.448815 3.336755 
-0.184839 -0.448666 3.114042 
-0.448995 -0.184846 3.115227 
-0.453896 -0.175919 1.026911 
-0.178587 -0.451896 1.027714 
-0.455842 -0.203860 1.365329 
-0.206137 -0.454220 1.364886 
-0.469484 -0.195299 1.581445 
-0.195101 -0.469604 1.580865 
-0.191798 -0.477732 1.771307 
-0.475909 -0.193677 1.771367 
-0.459954 -0.187770 2.766766 
-0.189897 -0.457354 2.765428 
-0.380375 -0.312366 3.885915 
-0.380198 -0.312612 0.112059 
-0.363132 -0.364214 2.228539 
-0.481415 -0.168484 2.353793 
-0.168251 -0.480225 2.354374 
-0.261612 -0.408339 0.912532 
-0.409431 -0.260258 0.912162 
-0.112009 -0.480574 3.907623 
-0.114518 -0.479632 0.087659 
-0.438560 -0.221865 1.184741 
-0.224957 -0.435810 1.185174 
-0.109493 -0.478013 3.761276 
-0.117155 -0.476019 0.228956 
-0.483969 -0.091166 3.932694 
-0.483742 -0.091427 0.065757 
-0.342767 0.340549 0.707337 
-0.343598 0.339556 0.556704 
-0.334922 0.353553 0.301083 
-0.356619 0.358462 1.501974 
-0.362390 0.361057 1.702524 
-0.343568 0.345098 0.932847 
-0.351240 0.355122 1.295130 
-0.350465 0.353016 2.763006 
-0.365892 0.363066 1.927661 
-0.365868 0.363145 2.146263 
-0.351852 0.355360 2.585015 
-0.359942 0.360230 2.365476 
-0.344428 0.342923 3.154890 
-0.345993 0.348182 2.959975 
-0.335278 0.352074 3.669214 
-0.340495 0.342518 3.479116 
-0.191237 0.451733 3.840616 
-0.167594 0.460391 0.197170 
-0.413460 0.267028 3.879755 
-0.421953 0.251908 0.147674 
-0.150911 0.462201 3.679010 
-0.459293 0.164891 3.735373 
-0.201527 0.438285 3.481794 
-0.437583 0.205741 3.486936 
-0.434812 0.223754 1.028332 
-0.221287 0.436946 1.029154 
-0.178473 0.450706 0.827300 
-0.450811 0.178324 0.826813 
-0.479943 0.192926 2.033474 
-0.195705 0.476357 2.034086 
-0.478041 0.151087 2.551583 
-0.147568 0.479916 2.550628 
-0.448798 0.193397 3.054425 
-0.192249 0.449551 3.052520 
-0.190360 0.445767 0.387211 
-0.441525 0.202280 0.373218 
-0.452879 0.169288 0.591304 
-0.173000 0.450192 0.593153 
-0.452838 0.197349 1.188358 
-0.193203 0.456049 1.188972 
-0.473417 0.184776 2.367112 
-0.185817 0.476178 2.364853 
-0.462659 0.194435 1.383245 
-0.190448 0.464828 1.383946 
-0.468632 0.194566 1.579085 
-0.193775 0.469489 1.581604 
-0.182929 0.479852 1.800311 
-0.481749 0.179827 1.799250 
-0.447021 0.211687 2.805014 
-0.209008 0.449992 2.801985 
-0.448162 0.184305 3.262217 
-0.184560 0.447209 3.260085 
-0.312228 0.380490 0.118225 
-0.311830 0.381343 3.891488 
-0.341832 0.341179 3.328953 
-0.346478 0.349574 1.112077 
-0.089502 0.474335 0.707425 
-0.475676 0.087628 0.706102 
-0.459423 0.229356 2.218844 
-0.232539 0.459434 2.217686 
-0.424876 0.272759 2.467885 
-0.270322 0.427066 2.467201 
-0.508142 0.091448 1.910387 
-0.094712 0.505509 1.911121 
-0.097204 0.484694 3.933943 
-0.478957 0.113739 0.090649 
-0.475189 0.113883 0.230027 
-0.090862 0.485595 0.075129 
-0.475606 0.127383 3.908641 
0.342337 0.338424 0.681388 
0.348243 0.345831 0.179662 
0.356196 0.358842 1.426512 
0.345282 0.344763 0.934512 
0.349733 0.349736 1.150733 
0.360094 0.360344 1.686708 
0.365297 0.363514 1.923674 
0.350430 0.351467 2.764526 
0.360976 0.361078 2.362451 
0.353663 0.354462 2.587600 
0.365753 0.364838 2.142115 
0.348393 0.349190 2.909287 
0.329841 0.351786 3.350412 
0.342542 0.341425 3.647032 
0.449177 0.197582 3.838212 
0.197779 0.449564 3.835871 
0.459804 0.156047 3.672366 
0.157303 0.459305 3.669941 
0.456353 0.168539 0.292954 
0.172762 0.454737 0.295953 
0.192541 0.466638 1.431842 
0.465167 0.194965 1.433525 
0.194022 0.477262 2.031207 
0.480013 0.193272 2.031625 
0.478238 0.151151 2.551284 
0.150619 0.479363 2.551273 
0.145787 0.468676 2.980821 
0.468011 0.147196 2.981406 
0.180973 0.447618 3.480578 
0.447932 0.177795 3.482898 
0.460906 0.192624 1.288552 
0.191299 0.461214 1.287008 
0.194176 0.470360 1.574683 
0.466881 0.195444 1.573161 
0.439244 0.205599 3.219220 
[...]
POINT_DATA 507
SCALARS u float 1
LOOKUP_TABLE default
0.007043
0.008244
0.009600
0.009288
0.007064
0.008297
0.009232
0.008853
0.006980
0.007240
0.007689
0.008587
0.009037
0.009348
0.009631
0.009523
0.009602
0.008523
0.007886
0.007465
0.007123
0.007298
0.007686
0.008656
0.008890
0.009212
0.009207
0.009097
0.009244
0.008303
0.007661
0.007255
0.006461
0.005352
0.004070
0.004278
0.006131
0.007957
0.008605
0.007408
0.004738
0.003322
0.005205
0.006901
0.007834
0.008180
0.005928
0.003833
0.003725
0.005259
0.006562
0.008586
0.006197
0.003880
0.004257
0.006662
0.007758
0.007800
0.006415
0.004848
0.004237
0.004881
0.006439
0.007790
0.008124
0.006344
0.004186
0.003780
0.005959
0.008389
0.007497
0.005775
0.004229
0.004221
0.005963
0.008150
0.008880
0.006639
0.004517
0.003943
0.005344
0.006770
0.007909
0.008141
0.005900
0.004138
0.004196
0.006010
0.007625
0.008406
0.006158
0.003902
0.004215
0.006367
0.007986
0.008212
0.006625
0.004599
0.004027
0.005007
0.006565
0.007554
0.007247
0.005915
0.003995
0.003766
0.006280
0.008250
0.003921
0.008182
0.007013
0.005756
0.005836
0.007730
0.004227
0.007757
0.006684
0.007959
0.004581
0.007073
0.003573
0.006604
0.008529
0.008002
0.006617
0.006468
0.007259
0.006805
0.007426
0.007571
0.004173
0.004082
0.007858
0.008047
0.005965
0.006314
0.004735
0.004521
0.003822
0.003923
0.004320
0.004520
0.004654
0.004373
0.006912
0.006813
0.007871
0.008170
0.007196
0.006585
0.004982
0.004997
0.006454
0.006939
0.008144
0.008062
0.005424
0.008752
0.004613
0.005246
0.005176
0.005335
0.004056
0.003936
0.009105
0.008263
0.007274
0.007582
0.009188
0.008449
0.004072
0.007173
0.004015
0.005935
0.006952
0.007499
0.006517
0.004270
0.007110
0.007609
0.006876
0.004026
0.006299
0.003679
0.007022
0.003756
0.008135
0.008457
0.008537
0.008815
0.004648
0.004757
0.004402
0.004393
0.004202
0.004123
0.007765
0.007476
0.006227
0.006467
0.006012
0.006127
0.006088
0.005494
0.003999
0.003907
0.003300
0.003522
0.004964
0.004825
0.006407
0.006635
0.007970
0.007854
0.007007
0.006885
0.005206
0.005092
0.007362
0.007674
0.008705
0.009067
0.005045
0.006324
0.006116
0.005316
0.005230
0.008863
0.009275
0.007331
0.007460
0.007517
0.007984
0.008860
0.009169
0.003800
0.004193
0.006298
0.008218
0.006383
0.005504
0.008180
0.008163
0.003794
0.004493
0.008599
0.006696
0.004333
0.006441
0.005978
0.004526
0.006930
0.006766
0.007657
0.007725
0.005649
0.006988
0.004405
0.004798
0.006368
0.006465
0.004420
0.004342
0.003891
0.003358
0.007951
0.008163
0.004972
0.005302
0.005293
0.005991
0.003927
0.004031
0.007691
0.007779
0.006639
0.007310
0.008357
0.008508
0.007129
0.007693
0.005134
0.005049
0.007597
0.008199
0.003522
0.003840
0.007504
0.007348
0.003782
0.007248
0.003933
0.003666
0.005047
0.005431
0.007634
0.007809
0.004023
0.003686
0.006994
0.008574
0.007605
0.007034
0.008309
0.004177
0.006701
0.009129
0.005389
0.007609
0.006451
0.003750
0.007843
0.007230
0.008110
0.005090
0.006552
0.003923
0.006054
0.007217
0.006697
0.006058
0.005612
0.006398
0.005802
0.008556
0.008924
0.003443
0.003935
0.008053
0.008057
0.006114
0.005998
0.004213
0.004647
0.008660
0.008315
0.007930
0.007485
0.003991
0.003916
0.004700
0.004502
0.004188
0.004291
0.006244
0.006566
0.005147
0.004853
0.007113
0.007117
0.007994
0.007911
0.005228
0.007237
0.004630
0.005136
0.006044
0.005938
0.003632
0.003857
0.005197
0.004970
0.007879
0.006810
0.007711
0.007719
0.007621
0.006915
0.010278
0.009292
0.009821
0.009524
0.009745
0.009025
0.010216
0.010186
0.009019
0.010013
0.009675
0.009197
0.008483
0.008977
0.009667
0.009955
0.008480
0.010098
0.009903
0.009921
0.010193
0.009855
0.009343
0.008117
0.009386
0.010195
0.009633
0.010252
0.008893
0.009639
0.008821
0.010441
0.010092
0.009120
0.009682
0.009163
0.008412
0.010313
0.008177
0.009079
0.010308
0.009920
0.009656
0.009920
0.010174
0.010195
0.010233
0.007974
0.009215
0.009632
0.003923
0.009268
0.008226
0.008901
0.008585
0.006043
0.008251
0.008215
0.007486
0.005557
0.008795
0.006195
0.008639
0.006196
0.008907
0.006271
0.005452
0.003273
0.008781
0.008908
0.004691
0.003981
0.009005
0.003095
0.005470
0.008022
0.008051
0.009666
0.009783
0.009622
0.008032
0.002349
0.003237
0.002324
0.002635
0.005536
0.003001
0.005575
0.005441
0.002585
0.005262
0.005510
0.005441
0.008196
0.003018
0.008348
0.008717
0.009035
0.006361
0.005837
0.003648
0.003358
0.009598
0.007536
0.004830
0.004835
0.002158
0.004925
0.002047
0.002544
0.006358
0.006049
0.005459
0.007944
0.006448
0.006393
0.003362
0.008960
0.008823
0.008765
0.008896
0.009040
0.005945
0.005780
0.005650
0.006102
0.009960
0.005687
0.008471
0.005412
0.005385
0.003011
0.007966
0.003486
0.008221
0.008390
0.009275
0.009972
0.006062
