# vtk DataFile Version 2.0
Unstructured Grid Example
ASCII
DATASET UNSTRUCTURED_GRID
POINTS 507 float
0.000033 0.499802 -0.003341 
0.499580 0.000140 -0.003893 
0.000079 -0.499461 -0.004530 
-0.499413 0.000054 -0.004375 
-0.000002 0.499859 4.003355 
0.499580 0.000122 4.003919 
-0.000014 -0.499560 4.004366 
-0.499488 0.000099 4.004175 
0.191240 0.461852 -0.003315 
0.353305 0.353493 -0.003431 
0.461623 0.191386 -0.003640 
0.461644 -0.191042 -0.004059 
0.353326 -0.353092 -0.004264 
0.191289 -0.461486 -0.004419 
-0.191103 -0.461488 -0.004549 
-0.353115 -0.353263 -0.004496 
-0.461389 -0.191167 -0.004527 
-0.461451 0.191303 -0.004021 
-0.353244 0.353376 -0.003731 
-0.191150 0.461745 -0.003537 
0.191207 0.461827 4.003381 
0.353319 0.353515 4.003461 
0.461588 0.191385 4.003636 
0.461548 -0.191073 4.004086 
0.353296 -0.353219 4.004204 
0.191192 -0.461525 4.004356 
-0.191175 -0.461561 4.004356 
-0.353184 -0.353315 4.004301 
-0.461454 -0.191182 4.004364 
-0.461488 0.191357 4.003920 
-0.353260 0.353442 4.003627 
-0.191191 0.461779 4.003441 
-0.000050 0.499117 0.197059 
-0.000124 0.498333 0.398083 
-0.000065 0.498106 0.599612 
0.000028 0.498364 0.801206 
0.000063 0.498958 1.002720 
0.000166 0.499739 1.203769 
0.000064 0.500502 1.404058 
0.000019 0.501018 1.603370 
-0.000089 0.501382 1.801775 
-0.000109 0.501575 2.000015 
-0.000026 0.501642 2.198150 
0.000095 0.501084 2.396906 
0.000154 0.500206 2.596285 
0.000090 0.499673 2.796127 
-0.000100 0.499081 2.997338 
0.000025 0.498482 3.198993 
-0.000025 0.498256 3.400303 
-0.000019 0.498302 3.601834 
-0.000031 0.499046 3.802969 
0.000007 -0.499179 0.196003 
-0.000084 -0.498709 0.397354 
-0.000072 -0.498316 0.599252 
-0.000036 -0.498342 0.801158 
0.000018 -0.498543 1.002811 
0.000027 -0.499242 1.203608 
0.000071 -0.500124 1.403704 
0.000007 -0.501024 1.602872 
-0.000024 -0.501683 1.801574 
0.000013 -0.502013 1.999947 
0.000003 -0.501621 2.198341 
0.000025 -0.500828 2.397054 
0.000045 -0.499821 2.596302 
0.000048 -0.499241 2.796214 
0.000056 -0.498683 2.997288 
0.000005 -0.498378 3.198848 
-0.000009 -0.498346 3.400700 
-0.000064 -0.498669 3.602499 
-0.000033 -0.499159 3.803897 
0.499061 -0.000089 0.196564 
0.498460 -0.000285 0.397746 
0.498085 -0.000222 0.599431 
0.498381 -0.000048 0.801184 
0.499032 0.000093 1.002662 
0.499670 0.000367 1.203842 
0.500381 0.000103 1.404202 
0.500823 -0.000036 1.603046 
0.501434 -0.000191 1.801586 
0.501856 -0.000247 1.999921 
0.501697 -0.000134 2.198115 
0.501019 0.000125 2.396951 
0.500134 0.000220 2.596250 
0.499500 0.000133 2.796166 
0.499010 -0.000012 2.997377 
0.498442 -0.000105 3.198804 
0.498096 -0.000204 3.400557 
0.498377 -0.000189 3.602343 
0.498995 -0.000053 3.803482 
-0.499068 -0.000190 0.196120 
-0.498567 -0.000305 0.397466 
-0.498288 -0.000237 0.599328 
-0.498360 0.000003 0.801150 
-0.498761 0.000245 1.002750 
-0.499446 0.000312 1.203742 
-0.500239 0.000166 1.403892 
-0.500982 -0.000053 1.602991 
-0.501499 -0.000203 1.801578 
-0.501892 -0.000287 1.999950 
-0.501634 -0.000197 2.198281 
-0.500959 -0.000052 2.397031 
-0.500064 0.000244 2.596419 
-0.499624 0.000267 2.796587 
-0.498866 0.000285 2.997443 
-0.498427 -0.000009 3.198937 
-0.498369 -0.000199 3.400709 
-0.498471 -0.000305 3.602545 
-0.498984 -0.000107 3.803786 
0.351131 -0.353343 0.680840 
0.351832 -0.354052 0.204923 
0.353882 -0.353760 1.481088 
0.352304 -0.352658 0.935817 
0.354431 -0.354526 1.681694 
0.353502 -0.353079 1.214754 
0.354752 -0.355037 1.921656 
0.353093 -0.352910 2.796399 
0.354349 -0.354157 2.390583 
0.353610 -0.353235 2.620705 
0.354663 -0.354845 2.158252 
0.352846 -0.352795 2.935114 
0.364549 -0.339760 3.350943 
0.352409 -0.352716 3.627699 
0.201110 -0.456784 3.810679 
0.456659 -0.201285 3.810411 
0.161488 -0.471966 3.651856 
0.471646 -0.161691 3.651664 
0.174428 -0.467337 0.315417 
0.466080 -0.177421 0.315640 
0.191268 -0.461370 1.206260 
0.461700 -0.190909 1.206342 
0.189245 -0.464903 2.036559 
0.464722 -0.189523 2.036528 
0.148753 -0.477248 2.584086 
0.477659 -0.148419 2.584004 
0.475905 -0.149862 3.004387 
0.149840 -0.475664 3.004311 
0.462222 -0.186067 3.473568 
0.185821 -0.462481 3.473601 
0.212193 -0.450969 3.228514 
0.470538 -0.163953 3.252236 
0.459362 -0.193141 0.544575 
0.190436 -0.460488 0.544793 
0.470774 -0.163037 0.800348 
0.162123 -0.471196 0.800318 
0.462913 -0.186189 1.060852 
0.186223 -0.462765 1.060775 
0.191484 -0.461797 1.352347 
0.462169 -0.191147 1.352482 
0.462699 -0.191721 1.553853 
0.191675 -0.462577 1.553586 
0.177351 -0.469280 1.784136 
0.469078 -0.177529 1.784254 
0.183373 -0.466134 2.393133 
0.466373 -0.183169 2.392943 
0.191094 -0.461130 2.795713 
0.461412 -0.190959 2.795714 
0.348085 -0.356785 0.455083 
0.352947 -0.353032 3.870617 
0.375579 -0.327765 3.142777 
0.279880 -0.412709 3.077662 
0.225505 -0.447976 2.235318 
0.447940 -0.225613 2.235235 
0.091278 -0.493447 1.903475 
0.493285 -0.091478 1.903594 
0.100078 -0.489161 3.905951 
0.489113 -0.100099 3.905537 
0.269497 -0.421610 2.498897 
0.421953 -0.269207 2.498768 
0.188138 -0.462514 0.116916 
0.462101 -0.189006 0.117271 
-0.352361 -0.352361 0.771504 
-0.363636 -0.341474 0.327413 
-0.352281 -0.352431 0.588215 
-0.354451 -0.354566 1.682383 
-0.353916 -0.353870 1.491695 
-0.353290 -0.352988 1.236564 
-0.352650 -0.352404 1.002630 
-0.354738 -0.355001 1.898734 
-0.353289 -0.353051 2.796668 
-0.353611 -0.353342 2.606807 
-0.354104 -0.353945 2.447928 
-0.354700 -0.354945 2.070964 
-0.352724 -0.352581 2.986876 
-0.352358 -0.352429 3.264328 
-0.363585 -0.341439 3.672108 
-0.352371 -0.352485 3.418573 
-0.469255 -0.169684 3.776177 
-0.469265 -0.169758 0.223028 
-0.252075 -0.430828 3.814754 
-0.257731 -0.427521 0.178340 
-0.208318 -0.456426 2.171849 
-0.456321 -0.208541 2.171778 
-0.148220 -0.475797 0.811157 
-0.475798 -0.148148 0.811123 
-0.166016 -0.473748 1.988511 
-0.473598 -0.166296 1.988508 
-0.176460 -0.467591 2.590705 
-0.467875 -0.176210 2.590841 
-0.460869 -0.190691 2.993673 
-0.190839 -0.460722 2.993577 
-0.459390 -0.193957 0.402810 
-0.213150 -0.450878 0.398006 
-0.459291 -0.193886 3.593484 
-0.183287 -0.463707 3.571681 
-0.460150 -0.191209 0.595086 
-0.191053 -0.460246 0.595111 
-0.461265 -0.188884 3.339644 
-0.186958 -0.461929 3.336021 
-0.190109 -0.460781 3.129348 
-0.460709 -0.190369 3.130007 
-0.464124 -0.182237 1.003749 
-0.182515 -0.463915 1.003833 
-0.455377 -0.206308 1.332962 
-0.206546 -0.455208 1.332916 
-0.462728 -0.191755 1.553946 
-0.191735 -0.462741 1.553886 
-0.187558 -0.465156 1.754770 
-0.464966 -0.187754 1.754777 
-0.461732 -0.190968 2.796527 
-0.191191 -0.461461 2.796387 
-0.386431 -0.316000 3.851172 
-0.386331 -0.316126 0.148303 
-0.354554 -0.354667 2.244588 
-0.472858 -0.165699 2.377928 
-0.165675 -0.472734 2.377989 
-0.268353 -0.420020 0.895592 
-0.420134 -0.268211 0.895554 
-0.113557 -0.486232 3.872006 
-0.116395 -0.485524 0.124927 
-0.444158 -0.227671 1.155992 
-0.227994 -0.443870 1.156037 
-0.111387 -0.486405 3.731893 
-0.119357 -0.484493 0.260276 
-0.490697 -0.091825 3.897248 
-0.490672 -0.091856 0.102449 
-0.352426 0.352194 0.704083 
-0.352513 0.352091 0.564123 
-0.341421 0.363421 0.323851 
-0.353874 0.354066 1.468905 
-0.354477 0.354338 1.678688 
-0.352510 0.352670 0.913737 
-0.353312 0.353717 1.261907 
-0.353231 0.353497 2.796134 
-0.354843 0.354547 1.921019 
-0.354840 0.354556 2.158074 
-0.353376 0.353742 2.619965 
-0.354221 0.354251 2.391460 
-0.352600 0.352443 3.167302 
-0.352763 0.352992 2.984857 
-0.342981 0.361830 3.648277 
-0.350045 0.354530 3.468900 
-0.194076 0.459725 3.813696 
-0.169681 0.469211 0.223194 
-0.419231 0.270980 3.849364 
-0.427889 0.256936 0.178160 
-0.154383 0.474054 3.659599 
-0.468801 0.170214 3.709081 
-0.207100 0.453071 3.473300 
-0.450020 0.213924 3.474276 
-0.444386 0.226656 1.004403 
-0.226399 0.444609 1.004488 
-0.183081 0.463563 0.815575 
-0.463574 0.183066 0.815524 
-0.464830 0.189050 2.036247 
-0.189341 0.464455 2.036311 
-0.477470 0.148872 2.583886 
-0.148504 0.477666 2.583787 
-0.458645 0.196125 3.071910 
-0.195727 0.458842 3.071699 
-0.193846 0.459160 0.403740 
-0.451883 0.210485 0.393731 
-0.465862 0.176773 0.596888 
-0.177161 0.465582 0.597081 
-0.458710 0.197370 1.157588 
-0.196936 0.459046 1.157652 
-0.466168 0.183151 2.393114 
-0.183260 0.466457 2.392878 
-0.462015 0.191665 1.349328 
-0.191248 0.462242 1.349402 
-0.462639 0.191679 1.550823 
-0.191596 0.462729 1.551086 
-0.177452 0.468964 1.783322 
-0.469162 0.177127 1.783211 
-0.452312 0.211779 2.835501 
-0.211460 0.452641 2.835183 
-0.460625 0.190305 3.266021 
-0.188689 0.461200 3.265723 
-0.316086 0.386362 0.147969 
-0.315876 0.386588 3.862303 
-0.351127 0.353457 3.329222 
-0.352814 0.353138 1.083464 
-0.091634 0.489693 0.703406 
-0.489833 0.091438 0.703267 
-0.447929 0.225324 2.235400 
-0.225657 0.447930 2.235279 
-0.421756 0.269506 2.498649 
-0.269251 0.421985 2.498578 
-0.493380 0.091005 1.903285 
-0.091346 0.493105 1.903362 
-0.098239 0.489651 3.905910 
-0.485514 0.116059 0.124870 
-0.484542 0.118461 0.259196 
-0.091797 0.490866 0.103273 
-0.482209 0.129143 3.875496 
0.353304 0.351047 0.678262 
0.353927 0.351815 0.205678 
0.353830 0.354106 1.389711 
0.352882 0.352442 0.915407 
0.353154 0.353154 1.120123 
0.354237 0.354263 1.661829 
0.354781 0.354594 1.917108 
0.353227 0.353335 2.796293 
0.354329 0.354340 2.390336 
0.353565 0.353648 2.620620 
0.354828 0.354733 2.156548 
0.353014 0.353097 2.935279 
0.339661 0.364386 3.350638 
0.352403 0.352286 3.627212 
0.456691 0.201156 3.810019 
0.201177 0.456731 3.809774 
0.471659 0.161341 3.651387 
0.161472 0.471607 3.651133 
0.467134 0.174283 0.315973 
0.177141 0.466055 0.316228 
0.191467 0.462431 1.397264 
0.462277 0.191720 1.397440 
0.189165 0.464550 2.034590 
0.464838 0.189087 2.034634 
0.477491 0.148879 2.583994 
0.148823 0.477608 2.583993 
0.149695 0.476060 3.004280 
0.475991 0.149842 3.004342 
0.185917 0.462215 3.473033 
0.462248 0.185585 3.473275 
0.461832 0.191476 1.253312 
0.191337 0.461864 1.253150 
0.191638 0.462820 1.543381 
0.462456 0.191770 1.543222 
0.451034 0.212134 3.228306 
[...]
POINT_DATA 507
SCALARS u float 1
LOOKUP_TABLE default
0.007043
0.008244
0.009600
0.009288
0.007064
0.008297
0.009232
0.008853
0.006980
0.007240
0.007689
0.008587
0.009037
0.009348
0.009631
0.009523
0.009602
0.008523
0.007886
0.007465
0.007123
0.007298
0.007686
0.008656
0.008890
0.009212
0.009207
0.009097
0.009244
0.008303
0.007661
0.007255
0.006461
0.005352
0.004070
0.004278
0.006131
0.007957
0.008605
0.007408
0.004738
0.003322
0.005205
0.006901
0.007834
0.008180
0.005928
0.003833
0.003725
0.005259
0.006562
0.008586
0.006197
0.003880
0.004257
0.006662
0.007758
0.007800
0.006415
0.004848
0.004237
0.004881
0.006439
0.007790
0.008124
0.006344
0.004186
0.003780
0.005959
0.008389
0.007497
0.005775
0.004229
0.004221
0.005963
0.008150
0.008880
0.006639
0.004517
0.003943
0.005344
0.006770
0.007909
0.008141
0.005900
0.004138
0.004196
0.006010
0.007625
0.008406
0.006158
0.003902
0.004215
0.006367
0.007986
0.008212
0.006625
0.004599
0.004027
0.005007
0.006565
0.007554
0.007247
0.005915
0.003995
0.003766
0.006280
0.008250
0.003921
0.008182
0.007013
0.005756
0.005836
0.007730
0.004227
0.007757
0.006684
0.007959
0.004581
0.007073
0.003573
0.006604
0.008529
0.008002
0.006617
0.006468
0.007259
0.006805
0.007426
0.007571
0.004173
0.004082
0.007858
0.008047
0.005965
0.006314
0.004735
0.004521
0.003822
0.003923
0.004320
0.004520
0.004654
0.004373
0.006912
0.006813
0.007871
0.008170
0.007196
0.006585
0.004982
0.004997
0.006454
0.006939
0.008144
0.008062
0.005424
0.008752
0.004613
0.005246
0.005176
0.005335
0.004056
0.003936
0.009105
0.008263
0.007274
0.007582
0.009188
0.008449
0.004072
0.007173
0.004015
0.005935
0.006952
0.007499
0.006517
0.004270
0.007110
0.007609
0.006876
0.004026
0.006299
0.003679
0.007022
0.003756
0.008135
0.008457
0.008537
0.008815
0.004648
0.004757
0.004402
0.004393
0.004202
0.004123
0.007765
0.007476
0.006227
0.006467
0.006012
0.006127
0.006088
0.005494
0.003999
0.003907
0.003300
0.003522
0.004964
0.004825
0.006407
0.006635
0.007970
0.007854
0.007007
0.006885
0.005206
0.005092
0.007362
0.007674
0.008705
0.009067
0.005045
0.006324
0.006116
0.005316
0.005230
0.008863
0.009275
0.007331
0.007460
0.007517
0.007984
0.008860
0.009169
0.003800
0.004193
0.006298
0.008218
0.006383
0.005504
0.008180
0.008163
0.003794
0.004493
0.008599
0.006696
0.004333
0.006441
0.005978
0.004526
0.006930
0.006766
0.007657
0.007725
0.005649
0.006988
0.004405
0.004798
0.006368
0.006465
0.004420
0.004342
0.003891
0.003358
0.007951
0.008163
0.004972
0.005302
0.005293
0.005991
0.003927
0.004031
0.007691
0.007779
0.006639
0.007310
0.008357
0.008508
0.007129
0.007693
0.005134
0.005049
0.007597
0.008199
0.003522
0.003840
0.007504
0.007348
0.003782
0.007248
0.003933
0.003666
0.005047
0.005431
0.007634
0.007809
0.004023
0.003686
0.006994
0.008574
0.007605
0.007034
0.008309
0.004177
0.006701
0.009129
0.005389
0.007609
0.006451
0.003750
0.007843
0.007230
0.008110
0.005090
0.006552
0.003923
0.006054
0.007217
0.006697
0.006058
0.005612
0.006398
0.005802
0.008556
0.008924
0.003443
0.003935
0.008053
0.008057
0.006114
0.005998
0.004213
0.004647
0.008660
0.008315
0.007930
0.007485
0.003991
0.003916
0.004700
0.004502
0.004188
0.004291
0.006244
0.006566
0.005147
0.004853
0.007113
0.007117
0.007994
0.007911
0.005228
0.007237
0.004630
0.005136
0.006044
0.005938
0.003632
0.003857
0.005197
0.004970
0.007879
0.006810
0.007711
0.007719
0.007621
0.006915
0.010278
0.009292
0.009821
0.009524
0.009745
0.009025
0.010216
0.010186
0.009019
0.010013
0.009675
0.009197
0.008483
0.008977
0.009667
0.009955
0.008480
0.010098
0.009903
0.009921
0.010193
0.009855
0.009343
0.008117
0.009386
0.010195
0.009633
0.010252
0.008893
0.009639
0.008821
0.010441
0.010092
0.009120
0.009682
0.009163
0.008412
0.010313
0.008177
0.009079
0.010308
0.009920
0.009656
0.009920
0.010174
0.010195
0.010233
0.007974
0.009215
0.009632
0.003923
0.009268
0.008226
0.008901
0.008585
0.006043
0.008251
0.008215
0.007486
0.005557
0.008795
0.006195
0.008639
0.006196
0.008907
0.006271
0.005452
0.003273
0.008781
0.008908
0.004691
0.003981
0.009005
0.003095
0.005470
0.008022
0.008051
0.009666
0.009783
0.009622
0.008032
0.002349
0.003237
0.002324
0.002635
0.005536
0.003001
0.005575
0.005441
0.002585
0.005262
0.005510
0.005441
0.008196
0.003018
0.008348
0.008717
0.009035
0.006361
0.005837
0.003648
0.003358
0.009598
0.007536
0.004830
0.004835
0.002158
0.004925
0.002047
0.002544
0.006358
0.006049
0.005459
0.007944
0.006448
0.006393
0.003362
0.008960
0.008823
0.008765
0.008896
0.009040
0.005945
0.005780
0.005650
0.006102
0.009960
0.005687
0.008471
0.005412
0.005385
0.003011
0.007966
0.003486
0.008221
0.008390
0.009275
0.009972
0.006062
