# vtk DataFile Version 2.0
Unstructured Grid Example
ASCII
DATASET UNSTRUCTURED_GRID
POINTS 507 float
0.000283 0.498301 -0.028632 
0.496402 0.001200 -0.033360 
0.000681 -0.495378 -0.038821 
-0.494969 0.000463 -0.037488 
-0.000017 0.498788 4.028746 
0.496403 0.001042 4.033586 
-0.000118 -0.496230 4.037412 
-0.495610 0.000846 4.035778 
0.190469 0.461192 -0.028407 
0.351428 0.353034 -0.029405 
0.459227 0.191718 -0.031197 
0.459403 -0.188770 -0.034785 
0.351601 -0.349598 -0.036541 
0.190890 -0.458052 -0.037872 
-0.189295 -0.458069 -0.038982 
-0.349793 -0.351064 -0.038524 
-0.457224 -0.189842 -0.038795 
-0.457754 0.191013 -0.034460 
-0.350900 0.352035 -0.031973 
-0.189702 0.460268 -0.030313 
0.190189 0.460973 4.028970 
0.351548 0.353227 4.029655 
0.458925 0.191710 4.031158 
0.458579 -0.189041 4.035018 
0.351345 -0.350689 4.036026 
0.190059 -0.458385 4.037328 
-0.189915 -0.458694 4.037332 
-0.350388 -0.351507 4.036860 
-0.457780 -0.189974 4.037393 
-0.458071 0.191477 4.033596 
-0.351041 0.352595 4.031085 
-0.190051 0.460562 4.029487 
-0.000425 0.492429 0.174801 
-0.001061 0.485712 0.383573 
-0.000553 0.483770 0.596672 
0.000240 0.485976 0.810338 
0.000538 0.491068 1.023312 
0.001421 0.497765 1.232300 
0.000549 0.504304 1.434777 
0.000164 0.508723 1.628883 
-0.000760 0.511847 1.815213 
-0.000931 0.513496 2.000126 
-0.000221 0.514075 2.184148 
0.000811 0.509287 2.373486 
0.001324 0.501763 2.568168 
0.000770 0.497195 2.766812 
-0.000860 0.492124 2.977191 
0.000216 0.486994 3.191372 
-0.000216 0.485054 3.402598 
-0.000164 0.485448 3.615717 
-0.000264 0.491823 3.825442 
0.000064 -0.492961 0.165747 
-0.000721 -0.488935 0.377327 
-0.000616 -0.485571 0.593586 
-0.000312 -0.485789 0.809926 
0.000152 -0.487513 1.024090 
0.000228 -0.493502 1.230921 
0.000609 -0.501060 1.431745 
0.000061 -0.508772 1.624610 
-0.000209 -0.514420 1.813484 
0.000109 -0.517251 1.999546 
0.000029 -0.513893 2.185779 
0.000214 -0.507094 2.374751 
0.000388 -0.498469 2.568312 
0.000410 -0.493497 2.767560 
0.000478 -0.488712 2.976761 
0.000046 -0.486104 3.190125 
-0.000074 -0.485823 3.405999 
-0.000546 -0.488598 3.621419 
-0.000284 -0.492797 3.833397 
0.491950 -0.000764 0.170554 
0.486803 -0.002442 0.380687 
0.483591 -0.001902 0.595126 
0.486128 -0.000408 0.810147 
0.491701 0.000799 1.022813 
0.497170 0.003142 1.232921 
0.503262 0.000879 1.436008 
0.507049 -0.000306 1.626102 
0.512286 -0.001641 1.813593 
0.515905 -0.002115 1.999323 
0.514541 -0.001151 2.183846 
0.508736 0.001074 2.373868 
0.501148 0.001881 2.567863 
0.495715 0.001141 2.767142 
0.491513 -0.000099 2.977519 
0.486650 -0.000897 3.189755 
0.483683 -0.001751 3.404769 
0.486088 -0.001616 3.620076 
0.491391 -0.000457 3.829836 
-0.492013 -0.001631 0.166750 
-0.487721 -0.002611 0.378286 
-0.485329 -0.002035 0.594238 
-0.485944 0.000024 0.809859 
-0.489379 0.002102 1.023565 
-0.495251 0.002676 1.232065 
-0.502049 0.001426 1.433352 
-0.508419 -0.000451 1.625632 
-0.512841 -0.001743 1.813524 
-0.516212 -0.002457 1.999569 
-0.513999 -0.001689 2.185270 
-0.508222 -0.000442 2.374559 
-0.500551 0.002088 2.569310 
-0.496777 0.002289 2.770752 
-0.490281 0.002444 2.978092 
-0.486518 -0.000080 3.190893 
-0.486023 -0.001705 3.406079 
-0.486899 -0.002611 3.621812 
-0.491291 -0.000918 3.832442 
0.340611 -0.343952 0.681207 
0.346677 -0.349976 0.176231 
0.356369 -0.355324 1.506145 
0.344476 -0.344255 0.953048 
0.361072 -0.361891 1.700199 
0.353116 -0.349487 1.242329 
0.363826 -0.366269 1.926426 
0.349608 -0.348037 2.769145 
0.360370 -0.358722 2.367756 
0.354035 -0.350829 2.592178 
0.363062 -0.364622 2.147982 
0.347494 -0.347052 2.910909 
0.354649 -0.331836 3.353047 
0.343748 -0.346378 3.648894 
0.197602 -0.450855 3.840581 
0.449778 -0.199108 3.838280 
0.157929 -0.463818 3.673940 
0.461077 -0.159666 3.672294 
0.170454 -0.459346 0.290873 
0.456272 -0.175669 0.293277 
0.190706 -0.457056 1.232620 
0.459882 -0.187637 1.233321 
0.194139 -0.478801 2.033686 
0.477254 -0.196521 2.033420 
0.149807 -0.476071 2.555860 
0.479592 -0.146948 2.555157 
0.468204 -0.147680 2.984474 
0.147491 -0.466140 2.983824 
0.449382 -0.182837 3.484288 
0.180730 -0.451606 3.484569 
0.206866 -0.440056 3.222061 
0.457916 -0.160686 3.246828 
0.446844 -0.189981 0.535923 
0.184345 -0.449187 0.534817 
0.457777 -0.159078 0.810132 
0.157659 -0.459178 0.809434 
0.456248 -0.181542 1.084353 
0.183593 -0.454272 1.083616 
0.192558 -0.460715 1.380624 
0.463902 -0.189675 1.381785 
0.468447 -0.194593 1.578930 
0.194202 -0.467401 1.576644 
0.181428 -0.481287 1.796805 
0.479555 -0.182952 1.797820 
0.186484 -0.472275 2.370959 
0.474327 -0.184734 2.369332 
0.189217 -0.455004 2.767123 
0.457420 -0.188064 2.767134 
0.338613 -0.349700 0.439565 
0.348361 -0.349088 3.901518 
0.366616 -0.320617 3.130776 
0.274182 -0.404311 3.061748 
0.230435 -0.458478 2.220754 
0.458173 -0.231361 2.220048 
0.093735 -0.506992 1.908313 
0.505606 -0.095447 1.909333 
0.098610 -0.484005 3.938267 
0.483588 -0.098790 3.934717 
0.272307 -0.423262 2.472932 
0.426200 -0.269824 2.471830 
0.186162 -0.457716 0.084272 
0.456955 -0.186793 0.087394 
-0.343337 -0.343332 0.778689 
-0.356551 -0.336133 0.303182 
-0.342652 -0.343935 0.581604 
-0.361242 -0.362235 1.701117 
-0.356658 -0.356265 1.516440 
-0.351295 -0.348710 1.263124 
-0.345810 -0.343700 1.023297 
-0.363704 -0.365959 1.904695 
-0.351289 -0.349252 2.771451 
-0.354051 -0.351741 2.579484 
-0.358275 -0.356911 2.423727 
-0.363379 -0.365481 2.066116 
-0.346448 -0.345223 2.966383 
-0.343310 -0.343914 3.259765 
-0.356108 -0.335827 3.695576 
-0.343417 -0.344397 3.424656 
-0.461748 -0.168010 3.804416 
-0.461888 -0.168494 0.193538 
-0.248106 -0.425732 3.844781 
-0.253970 -0.422707 0.147220 
-0.213406 -0.468397 2.161341 
-0.467502 -0.215317 2.160733 
-0.144807 -0.463772 0.820879 
-0.463777 -0.144190 0.820592 
-0.170384 -0.488214 1.988961 
-0.486930 -0.172786 1.988934 
-0.176732 -0.465701 2.562837 
-0.468141 -0.174592 2.563997 
-0.452768 -0.185766 2.973377 
-0.187033 -0.451506 2.972558 
-0.449297 -0.191717 0.383812 
-0.208793 -0.442240 0.378200 
-0.448449 -0.191103 3.612309 
-0.179351 -0.453996 3.588443 
-0.447749 -0.187450 0.588834 
-0.186113 -0.448572 0.589042 
-0.450022 -0.185182 3.340557 
-0.181866 -0.450345 3.336669 
-0.185454 -0.450080 3.115828 
-0.450362 -0.185490 3.116952 
-0.455090 -0.176656 1.024208 
-0.179045 -0.453298 1.024927 
-0.455787 -0.204146 1.361552 
-0.206185 -0.454335 1.361155 
-0.468695 -0.194886 1.578236 
-0.194709 -0.468803 1.577716 
-0.191303 -0.476264 1.769378 
-0.474632 -0.192985 1.769431 
-0.460162 -0.188143 2.770239 
-0.190048 -0.457833 2.769041 
-0.381082 -0.312790 3.881861 
-0.380913 -0.313022 0.116289 
-0.362131 -0.363100 2.230412 
-0.480417 -0.168159 2.356610 
-0.167950 -0.479351 2.357129 
-0.262399 -0.409702 0.910555 
-0.410680 -0.261186 0.910224 
-0.112190 -0.481234 3.903467 
-0.114737 -0.480320 0.092008 
-0.439213 -0.222543 1.181386 
-0.225311 -0.436750 1.181774 
-0.109714 -0.478992 3.757847 
-0.117412 -0.477008 0.232611 
-0.484754 -0.091243 3.928558 
-0.484551 -0.091477 0.070038 
-0.343894 0.341908 0.706957 
-0.344639 0.341019 0.557570 
-0.335681 0.354705 0.303740 
-0.356299 0.357949 1.498115 
-0.361466 0.360273 1.699742 
-0.344611 0.345982 0.930617 
-0.351482 0.354958 1.291253 
-0.350787 0.353072 2.766872 
-0.364603 0.362072 1.926886 
-0.364581 0.362142 2.147641 
-0.352030 0.355171 2.589093 
-0.359274 0.359533 2.368508 
-0.345381 0.344034 3.156338 
-0.346783 0.348744 2.962878 
-0.336177 0.353212 3.666771 
-0.341609 0.343920 3.477924 
-0.191568 0.452665 3.837475 
-0.167838 0.461420 0.200207 
-0.414133 0.267489 3.876209 
-0.422646 0.252494 0.151232 
-0.151317 0.463584 3.676745 
-0.460402 0.165512 3.732305 
-0.202177 0.440010 3.480802 
-0.439034 0.206696 3.485458 
-0.435929 0.224092 1.025540 
-0.221884 0.437840 1.026275 
-0.179011 0.452206 0.825931 
-0.452301 0.178878 0.825495 
-0.478180 0.192474 2.033797 
-0.194962 0.474968 2.034346 
-0.477974 0.150829 2.555352 
-0.147677 0.479653 2.554497 
-0.449947 0.193715 3.056465 
-0.192655 0.450635 3.054758 
-0.190767 0.447330 0.389140 
-0.442733 0.203237 0.375612 
-0.454394 0.170162 0.591956 
-0.173485 0.451988 0.593611 
-0.453523 0.197352 1.184767 
-0.193638 0.456399 1.185317 
-0.472571 0.184586 2.370147 
-0.185518 0.475044 2.368124 
-0.462584 0.194111 1.379287 
-0.190541 0.464526 1.379915 
-0.467933 0.194230 1.575787 
-0.193521 0.468700 1.578043 
-0.182289 0.478581 1.798328 
-0.480280 0.179512 1.797379 
-0.447638 0.211698 2.808572 
-0.209294 0.450301 2.805859 
-0.449617 0.185005 3.262661 
-0.185042 0.448842 3.260743 
-0.312678 0.381175 0.121696 
-0.312302 0.381955 3.888082 
-0.342917 0.342612 3.328985 
-0.347218 0.349990 1.108738 
-0.089751 0.476127 0.706956 
-0.477328 0.088072 0.705771 
-0.458082 0.228885 2.220776 
-0.231736 0.458092 2.219739 
-0.424512 0.272380 2.471475 
-0.270197 0.426473 2.470863 
-0.506419 0.091397 1.909558 
-0.094319 0.504062 1.910215 
-0.097324 0.485272 3.930672 
-0.479722 0.114009 0.094642 
-0.476280 0.114417 0.233431 
-0.090971 0.486210 0.078413 
-0.476376 0.127589 3.904773 
0.343617 0.339897 0.681023 
0.348906 0.346529 0.182698 
0.355920 0.358289 1.422217 
0.346169 0.345659 0.932283 
0.350133 0.350135 1.147161 
0.359410 0.359634 1.683805 
0.364070 0.362473 1.922908 
0.350757 0.351685 2.768233 
0.360201 0.360292 2.365705 
0.353651 0.354367 2.591453 
0.364478 0.363659 2.143799 
0.348932 0.349646 2.912320 
0.330987 0.353256 3.350438 
0.343693 0.342692 3.644719 
0.450054 0.197999 3.834922 
0.198176 0.450400 3.832826 
0.461188 0.156665 3.669918 
0.157790 0.460740 3.667746 
0.457612 0.169210 0.295640 
0.173273 0.456058 0.298319 
0.192416 0.466147 1.427807 
0.464829 0.194587 1.429314 
0.193455 0.475779 2.031602 
0.478242 0.192784 2.031976 
0.478151 0.150886 2.555102 
0.150410 0.479158 2.555091 
0.146243 0.469538 2.983558 
0.468943 0.147505 2.984082 
0.181550 0.449321 3.479697 
0.449602 0.178704 3.481775 
0.461014 0.192490 1.284440 
0.191303 0.461290 1.283057 
0.193880 0.469480 1.571030 
0.466364 0.195015 1.569667 
0.440620 0.206362 3.220280 
[...]
POINT_DATA 507
SCALARS u float 1
LOOKUP_TABLE default
0.007043
0.008244
0.009600
0.009288
0.007064
0.008297
0.009232
0.008853
0.006980
0.007240
0.007689
0.008587
0.009037
0.009348
0.009631
0.009523
0.009602
0.008523
0.007886
0.007465
0.007123
0.007298
0.007686
0.008656
0.008890
0.009212
0.009207
0.009097
0.009244
0.008303
0.007661
0.007255
0.006461
0.005352
0.004070
0.004278
0.006131
0.007957
0.008605
0.007408
0.004738
0.003322
0.005205
0.006901
0.007834
0.008180
0.005928
0.003833
0.003725
0.005259
0.006562
0.008586
0.006197
0.003880
0.004257
0.006662
0.007758
0.007800
0.006415
0.004848
0.004237
0.004881
0.006439
0.007790
0.008124
0.006344
0.004186
0.003780
0.005959
0.008389
0.007497
0.005775
0.004229
0.004221
0.005963
0.008150
0.008880
0.006639
0.004517
0.003943
0.005344
0.006770
0.007909
0.008141
0.005900
0.004138
0.004196
0.006010
0.007625
0.008406
0.006158
0.003902
0.004215
0.006367
0.007986
0.008212
0.006625
0.004599
0.004027
0.005007
0.006565
0.007554
0.007247
0.005915
0.003995
0.003766
0.006280
0.008250
0.003921
0.008182
0.007013
0.005756
0.005836
0.007730
0.004227
0.007757
0.006684
0.007959
0.004581
0.007073
0.003573
0.006604
0.008529
0.008002
0.006617
0.006468
0.007259
0.006805
0.007426
0.007571
0.004173
0.004082
0.007858
0.008047
0.005965
0.006314
0.004735
0.004521
0.003822
0.003923
0.004320
0.004520
0.004654
0.004373
0.006912
0.006813
0.007871
0.008170
0.007196
0.006585
0.004982
0.004997
0.006454
0.006939
0.008144
0.008062
0.005424
0.008752
0.004613
0.005246
0.005176
0.005335
0.004056
0.003936
0.009105
0.008263
0.007274
0.007582
0.009188
0.008449
0.004072
0.007173
0.004015
0.005935
0.006952
0.007499
0.006517
0.004270
0.007110
0.007609
0.006876
0.004026
0.006299
0.003679
0.007022
0.003756
0.008135
0.008457
0.008537
0.008815
0.004648
0.004757
0.004402
0.004393
0.004202
0.004123
0.007765
0.007476
0.006227
0.006467
0.006012
0.006127
0.006088
0.005494
0.003999
0.003907
0.003300
0.003522
0.004964
0.004825
0.006407
0.006635
0.007970
0.007854
0.007007
0.006885
0.005206
0.005092
0.007362
0.007674
0.008705
0.009067
0.005045
0.006324
0.006116
0.005316
0.005230
0.008863
0.009275
0.007331
0.007460
0.007517
0.007984
0.008860
0.009169
0.003800
0.004193
0.006298
0.008218
0.006383
0.005504
0.008180
0.008163
0.003794
0.004493
0.008599
0.006696
0.004333
0.006441
0.005978
0.004526
0.006930
0.006766
0.007657
0.007725
0.005649
0.006988
0.004405
0.004798
0.006368
0.006465
0.004420
0.004342
0.003891
0.003358
0.007951
0.008163
0.004972
0.005302
0.005293
0.005991
0.003927
0.004031
0.007691
0.007779
0.006639
0.007310
0.008357
0.008508
0.007129
0.007693
0.005134
0.005049
0.007597
0.008199
0.003522
0.003840
0.007504
0.007348
0.003782
0.007248
0.003933
0.003666
0.005047
0.005431
0.007634
0.007809
0.004023
0.003686
0.006994
0.008574
0.007605
0.007034
0.008309
0.004177
0.006701
0.009129
0.005389
0.007609
0.006451
0.003750
0.007843
0.007230
0.008110
0.005090
0.006552
0.003923
0.006054
0.007217
0.006697
0.006058
0.005612
0.006398
0.005802
0.008556
0.008924
0.003443
0.003935
0.008053
0.008057
0.006114
0.005998
0.004213
0.004647
0.008660
0.008315
0.007930
0.007485
0.003991
0.003916
0.004700
0.004502
0.004188
0.004291
0.006244
0.006566
0.005147
0.004853
0.007113
0.007117
0.007994
0.007911
0.005228
0.007237
0.004630
0.005136
0.006044
0.005938
0.003632
0.003857
0.005197
0.004970
0.007879
0.006810
0.007711
0.007719
0.007621
0.006915
0.010278
0.009292
0.009821
0.009524
0.009745
0.009025
0.010216
0.010186
0.009019
0.010013
0.009675
0.009197
0.008483
0.008977
0.009667
0.009955
0.008480
0.010098
0.009903
0.009921
0.010193
0.009855
0.009343
0.008117
0.009386
0.010195
0.009633
0.010252
0.008893
0.009639
0.008821
0.010441
0.010092
0.009120
0.009682
0.009163
0.008412
0.010313
0.008177
0.009079
0.010308
0.009920
0.009656
0.009920
0.010174
0.010195
0.010233
0.007974
0.009215
0.009632
0.003923
0.009268
0.008226
0.008901
0.008585
0.006043
0.008251
0.008215
0.007486
0.005557
0.008795
0.006195
0.008639
0.006196
0.008907
0.006271
0.005452
0.003273
0.008781
0.008908
0.004691
0.003981
0.009005
0.003095
0.005470
0.008022
0.008051
0.009666
0.009783
0.009622
0.008032
0.002349
0.003237
0.002324
0.002635
0.005536
0.003001
0.005575
0.005441
0.002585
0.005262
0.005510
0.005441
0.008196
0.003018
0.008348
0.008717
0.009035
0.006361
0.005837
0.003648
0.003358
0.009598
0.007536
0.004830
0.004835
0.002158
0.004925
0.002047
0.002544
0.006358
0.006049
0.005459
0.007944
0.006448
0.006393
0.003362
0.008960
0.008823
0.008765
0.008896
0.009040
0.005945
0.005780
0.005650
0.006102
0.009960
0.005687
0.008471
0.005412
0.005385
0.003011
0.007966
0.003486
0.008221
0.008390
0.009275
0.009972
0.006062
