# vtk DataFile Version 2.0
Unstructured Grid Example
ASCII
DATASET UNSTRUCTURED_GRID
POINTS 507 float
0.000347 0.497916 -0.035110 
0.495588 0.001472 -0.040908 
0.000835 -0.494333 -0.047604 
-0.493831 0.000568 -0.045969 
-0.000021 0.498514 4.035250 
0.495589 0.001278 4.041184 
-0.000144 -0.495377 4.045876 
-0.494617 0.001038 4.043872 
0.190271 0.461023 -0.034834 
0.350947 0.352917 -0.036058 
0.458613 0.191804 -0.038254 
0.458829 -0.188189 -0.042655 
0.351159 -0.348703 -0.044808 
0.190787 -0.457172 -0.046441 
-0.188832 -0.457193 -0.047802 
-0.348942 -0.350501 -0.047240 
-0.456157 -0.189502 -0.047572 
-0.456807 0.190939 -0.042256 
-0.350299 0.351692 -0.039207 
-0.189331 0.459889 -0.037171 
0.189928 0.460755 4.035525 
0.351094 0.353153 4.036364 
0.458242 0.191794 4.038207 
0.457818 -0.188520 4.042940 
0.350846 -0.350041 4.044177 
0.189768 -0.457581 4.045774 
-0.189593 -0.457960 4.045778 
-0.349672 -0.351044 4.045199 
-0.456839 -0.189664 4.045853 
-0.457196 0.191507 4.041197 
-0.350472 0.352378 4.038117 
-0.189759 0.460250 4.036159 
-0.000521 0.490717 0.169100 
-0.001301 0.482480 0.379856 
-0.000678 0.480098 0.595920 
0.000294 0.482804 0.812676 
0.000660 0.489047 1.028587 
0.001743 0.497260 1.239607 
0.000674 0.505278 1.442645 
0.000201 0.510696 1.635417 
-0.000932 0.514527 1.818655 
-0.001142 0.516549 2.000154 
-0.000271 0.517259 2.180562 
0.000995 0.511388 2.367487 
0.001623 0.502162 2.560966 
0.000944 0.496560 2.759303 
-0.001055 0.490342 2.972031 
0.000265 0.484051 3.189420 
-0.000265 0.481673 3.403185 
-0.000201 0.482156 3.619272 
-0.000324 0.489973 3.831198 
0.000078 -0.491369 0.157998 
-0.000884 -0.486432 0.372197 
-0.000755 -0.482306 0.592135 
-0.000383 -0.482574 0.812172 
0.000186 -0.484687 1.029540 
0.000280 -0.492032 1.237917 
0.000747 -0.501300 1.438927 
0.000074 -0.510757 1.630177 
-0.000256 -0.517682 1.816535 
0.000133 -0.521153 1.999444 
0.000036 -0.517036 2.182562 
0.000262 -0.508699 2.369039 
0.000475 -0.498123 2.561143 
0.000502 -0.492025 2.760221 
0.000586 -0.486158 2.971504 
0.000056 -0.482961 3.187891 
-0.000091 -0.482615 3.407356 
-0.000669 -0.486019 3.626264 
-0.000348 -0.491167 3.840952 
0.490129 -0.000937 0.163892 
0.483817 -0.002994 0.376317 
0.479878 -0.002332 0.594023 
0.482990 -0.000501 0.812443 
0.489823 0.000980 1.027974 
0.496529 0.003853 1.240370 
0.504000 0.001077 1.444154 
0.508644 -0.000375 1.632008 
0.515066 -0.002012 1.816669 
0.519504 -0.002593 1.999169 
0.517831 -0.001411 2.180192 
0.510713 0.001317 2.367956 
0.501408 0.002307 2.560593 
0.494746 0.001399 2.759708 
0.489592 -0.000121 2.972433 
0.483630 -0.001100 3.187437 
0.479992 -0.002147 3.405848 
0.482941 -0.001982 3.624617 
0.489443 -0.000560 3.836587 
-0.490206 -0.002000 0.159227 
-0.484943 -0.003202 0.373373 
-0.482009 -0.002495 0.592935 
-0.482764 0.000030 0.812089 
-0.486976 0.002577 1.028897 
-0.494177 0.003282 1.239319 
-0.502513 0.001748 1.440897 
-0.510324 -0.000553 1.631431 
-0.515747 -0.002137 1.816584 
-0.519880 -0.003013 1.999471 
-0.517166 -0.002071 2.181938 
-0.510082 -0.000542 2.368803 
-0.500676 0.002561 2.562367 
-0.496047 0.002806 2.764134 
-0.488083 0.002997 2.973135 
-0.483468 -0.000098 3.188832 
-0.482860 -0.002091 3.407454 
-0.483935 -0.003202 3.626746 
-0.489321 -0.001126 3.839782 
0.337917 -0.341547 0.681301 
0.345356 -0.348932 0.168882 
0.357006 -0.355724 1.512563 
0.342471 -0.342102 0.957462 
0.362773 -0.363778 1.704939 
0.353017 -0.348567 1.249392 
0.366151 -0.369146 1.927648 
0.348715 -0.346789 2.762165 
0.361912 -0.359892 2.361909 
0.354144 -0.350213 2.584871 
0.365213 -0.367126 2.145351 
0.346123 -0.345582 2.904709 
0.352114 -0.329806 3.353585 
0.341529 -0.344754 3.654322 
0.196704 -0.449336 3.848240 
0.448015 -0.198550 3.845418 
0.157017 -0.461731 3.679596 
0.458369 -0.159147 3.677578 
0.169436 -0.457299 0.284587 
0.453760 -0.175221 0.287549 
0.190562 -0.455951 1.239372 
0.459416 -0.186799 1.240231 
0.195392 -0.482360 2.032950 
0.480464 -0.198314 2.032624 
0.150077 -0.475769 2.548630 
0.480087 -0.146571 2.547768 
0.466232 -0.147121 2.979374 
0.146889 -0.463701 2.978576 
0.446093 -0.182010 3.487034 
0.179426 -0.448820 3.487379 
0.205501 -0.437260 3.220408 
0.454683 -0.159850 3.245443 
0.443638 -0.189172 0.533707 
0.182784 -0.446292 0.532261 
0.454448 -0.158064 0.812638 
0.156516 -0.456100 0.811769 
0.454541 -0.180352 1.090372 
0.182919 -0.452096 1.089467 
0.192834 -0.460438 1.387867 
0.464346 -0.189297 1.389291 
0.469920 -0.195329 1.585353 
0.194849 -0.468637 1.582550 
0.182472 -0.484362 1.800050 
0.482238 -0.184341 1.801294 
0.187281 -0.473848 2.365280 
0.476365 -0.185135 2.363284 
0.188736 -0.453435 2.759800 
0.456398 -0.187322 2.759814 
0.336187 -0.347886 0.435590 
0.347186 -0.348077 3.909433 
0.364320 -0.318786 3.127703 
0.272723 -0.402160 3.057672 
0.231698 -0.461169 2.217024 
0.460794 -0.232833 2.216158 
0.094365 -0.510461 1.909552 
0.508761 -0.096464 1.910802 
0.098234 -0.482685 3.946544 
0.482174 -0.098455 3.942191 
0.273027 -0.423685 2.466281 
0.427288 -0.269982 2.464930 
0.185656 -0.456487 0.075911 
0.455636 -0.186226 0.079742 
-0.341026 -0.341020 0.780530 
-0.354736 -0.334766 0.296975 
-0.340186 -0.341759 0.579910 
-0.362981 -0.364199 1.705915 
-0.357360 -0.356878 1.522778 
-0.350784 -0.347614 1.269927 
-0.344058 -0.341470 1.028590 
-0.366001 -0.368766 1.906221 
-0.350776 -0.348278 2.764992 
-0.354163 -0.351332 2.572486 
-0.359343 -0.357671 2.417528 
-0.365602 -0.368179 2.064874 
-0.344840 -0.343338 2.961135 
-0.340993 -0.341734 3.258597 
-0.354193 -0.334390 3.701586 
-0.341123 -0.342325 3.426214 
-0.459825 -0.167581 3.811648 
-0.459999 -0.168170 0.185985 
-0.247089 -0.424426 3.852472 
-0.253007 -0.421474 0.139249 
-0.214709 -0.471463 2.158650 
-0.470365 -0.217052 2.157905 
-0.143932 -0.460692 0.823369 
-0.460698 -0.143176 0.823017 
-0.171503 -0.491920 1.989076 
-0.490344 -0.174448 1.989044 
-0.176802 -0.465217 2.555699 
-0.468209 -0.174177 2.557121 
-0.450693 -0.184504 2.968179 
-0.186058 -0.449146 2.967175 
-0.446712 -0.191143 0.378946 
-0.207677 -0.440028 0.373127 
-0.445672 -0.190390 3.617130 
-0.178343 -0.451509 3.592736 
-0.444572 -0.186487 0.587232 
-0.184848 -0.445582 0.587487 
-0.447143 -0.184234 3.340791 
-0.180562 -0.447378 3.336835 
-0.184262 -0.447339 3.112365 
-0.447711 -0.184241 3.113608 
-0.452776 -0.175227 1.029448 
-0.178157 -0.450579 1.030330 
-0.455893 -0.203592 1.368875 
-0.206093 -0.454111 1.368388 
-0.470224 -0.195687 1.584457 
-0.195470 -0.470356 1.583820 
-0.192263 -0.479109 1.773119 
-0.477108 -0.194325 1.773184 
-0.459759 -0.187420 2.763506 
-0.189755 -0.456904 2.762037 
-0.379712 -0.311968 3.889721 
-0.379526 -0.312227 0.108089 
-0.364072 -0.365260 2.226781 
-0.482353 -0.168789 2.351149 
-0.168533 -0.481046 2.351787 
-0.260874 -0.407059 0.914388 
-0.408258 -0.259387 0.913982 
-0.111839 -0.479955 3.911525 
-0.114313 -0.478987 0.083576 
-0.437947 -0.221229 1.187890 
-0.224624 -0.434927 1.188366 
-0.109286 -0.477094 3.764495 
-0.116914 -0.475091 0.225525 
-0.483232 -0.091094 3.936577 
-0.482983 -0.091380 0.061737 
-0.341708 0.339273 0.707693 
-0.342622 0.338183 0.555892 
-0.334210 0.352472 0.298588 
-0.356920 0.358943 1.505596 
-0.363257 0.361793 1.705135 
-0.342588 0.344269 0.934940 
-0.351013 0.355276 1.298770 
-0.350162 0.352963 2.759377 
-0.367102 0.363999 1.928388 
-0.367076 0.364086 2.144970 
-0.351685 0.355537 2.581186 
-0.360569 0.360885 2.362630 
-0.343533 0.341880 3.153530 
-0.345251 0.347655 2.957249 
-0.334434 0.351005 3.671508 
-0.339448 0.341202 3.480235 
-0.190926 0.450857 3.843566 
-0.167365 0.459424 0.194319 
-0.412827 0.266595 3.883085 
-0.421303 0.251357 0.144334 
-0.150531 0.460902 3.681137 
-0.458251 0.164308 3.738254 
-0.200916 0.436665 3.482724 
-0.436220 0.204845 3.488323 
-0.433763 0.223435 1.030954 
-0.220728 0.436107 1.031856 
-0.177968 0.449297 0.828584 
-0.449413 0.177805 0.828049 
-0.481599 0.193351 2.033170 
-0.196402 0.477661 2.033843 
-0.478103 0.151330 2.548044 
-0.147465 0.480162 2.546996 
-0.447720 0.193098 3.052509 
-0.191868 0.448533 3.050419 
-0.189978 0.444300 0.385400 
-0.440390 0.201381 0.370971 
-0.451456 0.168468 0.590693 
-0.172544 0.448506 0.592722 
-0.452195 0.197347 1.191728 
-0.192794 0.455721 1.192403 
-0.474211 0.184954 2.364264 
-0.186097 0.477243 2.361783 
-0.462730 0.194738 1.386960 
-0.190360 0.465111 1.387730 
-0.469289 0.194883 1.582181 
-0.194014 0.470229 1.584947 
-0.183529 0.481045 1.802172 
-0.483128 0.180122 1.801007 
-0.446441 0.211677 2.801675 
-0.208739 0.449702 2.798348 
-0.446797 0.183648 3.261801 
-0.184107 0.445676 3.259467 
-0.311806 0.379846 0.114967 
-0.311387 0.380768 3.894685 
-0.340814 0.339834 3.328924 
-0.345784 0.349183 1.115212 
-0.089268 0.472652 0.707866 
-0.474125 0.087210 0.706413 
-0.460682 0.229797 2.217030 
-0.233293 0.460695 2.215759 
-0.425218 0.273116 2.464515 
-0.270440 0.427623 2.463764 
-0.509759 0.091497 1.911164 
-0.095081 0.506868 1.911971 
-0.097090 0.484151 3.937014 
-0.478238 0.113485 0.086900 
-0.474164 0.113381 0.226831 
-0.090759 0.485018 0.072045 
-0.474883 0.127191 3.912272 
0.341136 0.337041 0.681730 
0.347620 0.345176 0.176812 
0.356455 0.359360 1.430543 
0.344450 0.343922 0.936605 
0.349359 0.349361 1.154087 
0.360736 0.361010 1.689434 
0.366449 0.364491 1.924394 
0.350124 0.351262 2.761046 
0.361704 0.361816 2.359396 
0.353673 0.354551 2.583983 
0.366950 0.365945 2.140534 
0.347886 0.348762 2.906439 
0.328765 0.350406 3.350387 
0.341462 0.340235 3.649204 
0.448354 0.197191 3.841301 
0.197407 0.448779 3.838730 
0.458506 0.155468 3.674665 
0.156847 0.457957 3.672001 
0.455172 0.167910 0.290432 
0.172282 0.453498 0.293732 
0.192659 0.467099 1.435629 
0.465483 0.195321 1.437478 
0.194554 0.478655 2.030837 
0.481676 0.193731 2.031296 
0.478320 0.151400 2.547701 
0.150816 0.479555 2.547688 
0.145359 0.467867 2.978251 
0.467137 0.146907 2.978893 
0.180432 0.446019 3.481404 
0.446364 0.176941 3.483952 
0.460804 0.192750 1.292413 
0.191295 0.461143 1.290718 
0.194454 0.471186 1.578112 
0.467365 0.195847 1.576441 
0.437952 0.204884 3.218225 
[...]
POINT_DATA 507
SCALARS u float 1
LOOKUP_TABLE default
0.007043
0.008244
0.009600
0.009288
0.007064
0.008297
0.009232
0.008853
0.006980
0.007240
0.007689
0.008587
0.009037
0.009348
0.009631
0.009523
0.009602
0.008523
0.007886
0.007465
0.007123
0.007298
0.007686
0.008656
0.008890
0.009212
0.009207
0.009097
0.009244
0.008303
0.007661
0.007255
0.006461
0.005352
0.004070
0.004278
0.006131
0.007957
0.008605
0.007408
0.004738
0.003322
0.005205
0.006901
0.007834
0.008180
0.005928
0.003833
0.003725
0.005259
0.006562
0.008586
0.006197
0.003880
0.004257
0.006662
0.007758
0.007800
0.006415
0.004848
0.004237
0.004881
0.006439
0.007790
0.008124
0.006344
0.004186
0.003780
0.005959
0.008389
0.007497
0.005775
0.004229
0.004221
0.005963
0.008150
0.008880
0.006639
0.004517
0.003943
0.005344
0.006770
0.007909
0.008141
0.005900
0.004138
0.004196
0.006010
0.007625
0.008406
0.006158
0.003902
0.004215
0.006367
0.007986
0.008212
0.006625
0.004599
0.004027
0.005007
0.006565
0.007554
0.007247
0.005915
0.003995
0.003766
0.006280
0.008250
0.003921
0.008182
0.007013
0.005756
0.005836
0.007730
0.004227
0.007757
0.006684
0.007959
0.004581
0.007073
0.003573
0.006604
0.008529
0.008002
0.006617
0.006468
0.007259
0.006805
0.007426
0.007571
0.004173
0.004082
0.007858
0.008047
0.005965
0.006314
0.004735
0.004521
0.003822
0.003923
0.004320
0.004520
0.004654
0.004373
0.006912
0.006813
0.007871
0.008170
0.007196
0.006585
0.004982
0.004997
0.006454
0.006939
0.008144
0.008062
0.005424
0.008752
0.004613
0.005246
0.005176
0.005335
0.004056
0.003936
0.009105
0.008263
0.007274
0.007582
0.009188
0.008449
0.004072
0.007173
0.004015
0.005935
0.006952
0.007499
0.006517
0.004270
0.007110
0.007609
0.006876
0.004026
0.006299
0.003679
0.007022
0.003756
0.008135
0.008457
0.008537
0.008815
0.004648
0.004757
0.004402
0.004393
0.004202
0.004123
0.007765
0.007476
0.006227
0.006467
0.006012
0.006127
0.006088
0.005494
0.003999
0.003907
0.003300
0.003522
0.004964
0.004825
0.006407
0.006635
0.007970
0.007854
0.007007
0.006885
0.005206
0.005092
0.007362
0.007674
0.008705
0.009067
0.005045
0.006324
0.006116
0.005316
0.005230
0.008863
0.009275
0.007331
0.007460
0.007517
0.007984
0.008860
0.009169
0.003800
0.004193
0.006298
0.008218
0.006383
0.005504
0.008180
0.008163
0.003794
0.004493
0.008599
0.006696
0.004333
0.006441
0.005978
0.004526
0.006930
0.006766
0.007657
0.007725
0.005649
0.006988
0.004405
0.004798
0.006368
0.006465
0.004420
0.004342
0.003891
0.003358
0.007951
0.008163
0.004972
0.005302
0.005293
0.005991
0.003927
0.004031
0.007691
0.007779
0.006639
0.007310
0.008357
0.008508
0.007129
0.007693
0.005134
0.005049
0.007597
0.008199
0.003522
0.003840
0.007504
0.007348
0.003782
0.007248
0.003933
0.003666
0.005047
0.005431
0.007634
0.007809
0.004023
0.003686
0.006994
0.008574
0.007605
0.007034
0.008309
0.004177
0.006701
0.009129
0.005389
0.007609
0.006451
0.003750
0.007843
0.007230
0.008110
0.005090
0.006552
0.003923
0.006054
0.007217
0.006697
0.006058
0.005612
0.006398
0.005802
0.008556
0.008924
0.003443
0.003935
0.008053
0.008057
0.006114
0.005998
0.004213
0.004647
0.008660
0.008315
0.007930
0.007485
0.003991
0.003916
0.004700
0.004502
0.004188
0.004291
0.006244
0.006566
0.005147
0.004853
0.007113
0.007117
0.007994
0.007911
0.005228
0.007237
0.004630
0.005136
0.006044
0.005938
0.003632
0.003857
0.005197
0.004970
0.007879
0.006810
0.007711
0.007719
0.007621
0.006915
0.010278
0.009292
0.009821
0.009524
0.009745
0.009025
0.010216
0.010186
0.009019
0.010013
0.009675
0.009197
0.008483
0.008977
0.009667
0.009955
0.008480
0.010098
0.009903
0.009921
0.010193
0.009855
0.009343
0.008117
0.009386
0.010195
0.009633
0.010252
0.008893
0.009639
0.008821
0.010441
0.010092
0.009120
0.009682
0.009163
0.008412
0.010313
0.008177
0.009079
0.010308
0.009920
0.009656
0.009920
0.010174
0.010195
0.010233
0.007974
0.009215
0.009632
0.003923
0.009268
0.008226
0.008901
0.008585
0.006043
0.008251
0.008215
0.007486
0.005557
0.008795
0.006195
0.008639
0.006196
0.008907
0.006271
0.005452
0.003273
0.008781
0.008908
0.004691
0.003981
0.009005
0.003095
0.005470
0.008022
0.008051
0.009666
0.009783
0.009622
0.008032
0.002349
0.003237
0.002324
0.002635
0.005536
0.003001
0.005575
0.005441
0.002585
0.005262
0.005510
0.005441
0.008196
0.003018
0.008348
0.008717
0.009035
0.006361
0.005837
0.003648
0.003358
0.009598
0.007536
0.004830
0.004835
0.002158
0.004925
0.002047
0.002544
0.006358
0.006049
0.005459
0.007944
0.006448
0.006393
0.003362
0.008960
0.008823
0.008765
0.008896
0.009040
0.005945
0.005780
0.005650
0.006102
0.009960
0.005687
0.008471
0.005412
0.005385
0.003011
0.007966
0.003486
0.008221
0.008390
0.009275
0.009972
0.006062
