# vtk DataFile Version 2.0
Unstructured Grid Example
ASCII
DATASET UNSTRUCTURED_GRID
POINTS 507 float
-0.000347 0.502084 0.035110 
0.504412 -0.001472 0.040908 
-0.000835 -0.505667 0.047604 
-0.506169 -0.000568 0.045969 
0.000021 0.501486 3.964750 
0.504411 -0.001278 3.958816 
0.000144 -0.504623 3.954124 
-0.505383 -0.001038 3.956128 
0.192412 0.462857 0.034834 
0.356159 0.354190 0.036058 
0.465267 0.190880 0.038254 
0.465051 -0.194495 0.042655 
0.355948 -0.358403 0.044808 
0.191896 -0.466708 0.046441 
-0.193852 -0.466686 0.047802 
-0.358165 -0.356606 0.047240 
-0.467722 -0.193181 0.047572 
-0.467073 0.191745 0.042256 
-0.356808 0.355415 0.039207 
-0.193353 0.463990 0.037171 
0.192756 0.463125 3.964475 
0.356013 0.353953 3.963636 
0.465637 0.190890 3.961793 
0.466061 -0.194163 3.957060 
0.356261 -0.357066 3.955823 
0.192915 -0.466299 3.954226 
-0.193091 -0.465920 3.954222 
-0.357434 -0.356062 3.954801 
-0.467040 -0.193019 3.954147 
-0.466683 0.191176 3.958803 
-0.356634 0.354729 3.961883 
-0.192924 0.463630 3.963841 
0.000521 0.509283 0.230900 
0.001301 0.517520 0.420144 
0.000678 0.519902 0.604080 
-0.000294 0.517196 0.787324 
-0.000660 0.510953 0.971413 
-0.001743 0.502740 1.160393 
-0.000674 0.494722 1.357355 
-0.000201 0.489304 1.564583 
0.000932 0.485473 1.781345 
0.001142 0.483451 1.999846 
0.000271 0.482741 2.219438 
-0.000995 0.488612 2.432513 
-0.001623 0.497838 2.639034 
-0.000944 0.503440 2.840697 
0.001055 0.509658 3.027969 
-0.000265 0.515949 3.210580 
0.000265 0.518327 3.396815 
0.000201 0.517844 3.580728 
0.000324 0.510027 3.768802 
-0.000078 -0.508631 0.242002 
0.000884 -0.513568 0.427803 
0.000755 -0.517694 0.607865 
0.000383 -0.517426 0.787828 
-0.000186 -0.515313 0.970460 
-0.000280 -0.507968 1.162083 
-0.000747 -0.498700 1.361073 
-0.000074 -0.489243 1.569823 
0.000256 -0.482318 1.783465 
-0.000133 -0.478847 2.000556 
-0.000036 -0.482964 2.217438 
-0.000262 -0.491301 2.430961 
-0.000475 -0.501877 2.638857 
-0.000502 -0.507975 2.839779 
-0.000586 -0.513842 3.028496 
-0.000056 -0.517039 3.212109 
0.000091 -0.517385 3.392644 
0.000669 -0.513981 3.573736 
0.000348 -0.508833 3.759048 
0.509871 0.000937 0.236108 
0.516183 0.002994 0.423683 
0.520122 0.002332 0.605977 
0.517010 0.000501 0.787557 
0.510177 -0.000980 0.972026 
0.503471 -0.003853 1.159630 
0.496000 -0.001077 1.355846 
0.491356 0.000375 1.567992 
0.484934 0.002012 1.783331 
0.480496 0.002593 2.000831 
0.482169 0.001411 2.219808 
0.489287 -0.001317 2.432044 
0.498592 -0.002307 2.639407 
0.505254 -0.001399 2.840292 
0.510408 0.000121 3.027567 
0.516370 0.001100 3.212563 
0.520008 0.002147 3.394152 
0.517059 0.001982 3.575383 
0.510557 0.000560 3.763413 
-0.509794 0.002000 0.240773 
-0.515057 0.003202 0.426627 
-0.517991 0.002495 0.607065 
-0.517236 -0.000030 0.787911 
-0.513024 -0.002577 0.971103 
-0.505823 -0.003282 1.160681 
-0.497487 -0.001748 1.359103 
-0.489676 0.000553 1.568569 
-0.484253 0.002137 1.783416 
-0.480120 0.003013 2.000529 
-0.482834 0.002071 2.218062 
-0.489918 0.000542 2.431197 
-0.499324 -0.002561 2.637633 
-0.503953 -0.002806 2.835866 
-0.511917 -0.002997 3.026865 
-0.516532 0.000098 3.211168 
-0.517140 0.002091 3.392546 
-0.516065 0.003202 3.573254 
-0.510679 0.001126 3.760218 
0.367124 -0.367620 0.680282 
0.359670 -0.360249 0.248545 
0.350101 -0.351383 1.442992 
0.364206 -0.365435 0.909619 
0.344333 -0.343329 1.653560 
0.354090 -0.358539 1.172830 
0.340956 -0.337961 1.914405 
0.358392 -0.360318 2.837835 
0.345195 -0.347215 2.425289 
0.352963 -0.356894 2.664076 
0.341894 -0.339981 2.173867 
0.360983 -0.361525 2.971914 
0.379599 -0.351807 3.347744 
0.365577 -0.362353 3.595475 
0.206442 -0.465799 3.765218 
0.467120 -0.204596 3.768039 
0.166901 -0.484354 3.618281 
0.487716 -0.164770 3.620299 
0.180471 -0.479486 0.352733 
0.480990 -0.180084 0.349639 
0.192121 -0.467929 1.166183 
0.464463 -0.195885 1.165325 
0.181804 -0.443773 2.040926 
0.445670 -0.178883 2.041253 
0.147150 -0.479038 2.627001 
0.474720 -0.150656 2.627863 
0.487612 -0.153180 3.034662 
0.153413 -0.490143 3.035460 
0.481743 -0.190978 3.457271 
0.193562 -0.479016 3.456926 
0.220292 -0.467560 3.238325 
0.489727 -0.168919 3.260457 
0.478393 -0.197944 0.557728 
0.199697 -0.477671 0.559961 
0.490535 -0.169055 0.785473 
0.168909 -0.489468 0.786458 
0.473047 -0.193254 1.025123 
0.190221 -0.475678 1.026048 
0.189850 -0.463442 1.309356 
0.459533 -0.193386 1.307931 
0.453960 -0.187355 1.515727 
0.187835 -0.455243 1.518531 
0.171153 -0.451025 1.764874 
0.453149 -0.169284 1.763630 
0.178643 -0.456796 2.426845 
0.454280 -0.180789 2.428841 
0.193948 -0.470445 2.839180 
0.467482 -0.195361 2.839166 
0.362486 -0.367556 0.478676 
0.359921 -0.359029 3.823637 
0.389205 -0.338632 3.161023 
0.288542 -0.425476 3.101857 
0.218010 -0.432007 2.257460 
0.432382 -0.216874 2.258326 
0.087543 -0.472855 1.896119 
0.474554 -0.085443 1.894869 
0.102310 -0.497000 3.856820 
0.497511 -0.102089 3.861174 
0.265225 -0.419099 2.538373 
0.415496 -0.268270 2.539724 
0.191143 -0.469808 0.166547 
0.469926 -0.192370 0.162694 
-0.366081 -0.366087 0.760579 
-0.374409 -0.349594 0.364254 
-0.366921 -0.365348 0.598267 
-0.344125 -0.342908 1.653901 
-0.349746 -0.350229 1.454074 
-0.356323 -0.359493 1.196182 
-0.363049 -0.365636 0.971208 
-0.341106 -0.338341 1.889672 
-0.356331 -0.358828 2.835008 
-0.352944 -0.355775 2.648347 
-0.347764 -0.349436 2.484722 
-0.341505 -0.338928 2.078335 
-0.362267 -0.363768 3.018032 
-0.366114 -0.365373 3.271264 
-0.374951 -0.349970 3.636429 
-0.365983 -0.364781 3.409324 
-0.480669 -0.172230 3.733244 
-0.480481 -0.171680 0.267863 
-0.258109 -0.438577 3.769102 
-0.263449 -0.434840 0.225654 
-0.200583 -0.438225 2.187824 
-0.439323 -0.198240 2.188569 
-0.153409 -0.494079 0.796375 
-0.494073 -0.154165 0.796727 
-0.159375 -0.451754 1.987827 
-0.453330 -0.156429 1.987860 
-0.176047 -0.470463 2.633076 
-0.467472 -0.178671 2.631653 
-0.473187 -0.198179 3.024530 
-0.196626 -0.474734 3.025534 
-0.474734 -0.197364 0.431694 
-0.219774 -0.464011 0.428117 
-0.475774 -0.198116 3.564864 
-0.189270 -0.478470 3.546198 
-0.479005 -0.196925 0.604593 
-0.198564 -0.477995 0.604338 
-0.478358 -0.194512 3.338256 
-0.194700 -0.479541 3.335036 
-0.197187 -0.477051 3.149902 
-0.476439 -0.197787 3.149856 
-0.477860 -0.190721 0.972645 
-0.187791 -0.480056 0.971763 
-0.454754 -0.209595 1.289495 
-0.207094 -0.456535 1.289982 
-0.453656 -0.186996 1.517018 
-0.187213 -0.453523 1.517655 
-0.181864 -0.448269 1.732562 
-0.450269 -0.179801 1.732497 
-0.464120 -0.195264 2.836494 
-0.192928 -0.466975 2.837963 
-0.394563 -0.320881 3.804515 
-0.394568 -0.320844 0.196977 
-0.343035 -0.341847 2.266141 
-0.461366 -0.161959 2.410339 
-0.162215 -0.462673 2.409702 
-0.277405 -0.435708 0.872843 
-0.434508 -0.278892 0.873249 
-0.115636 -0.493829 3.824176 
-0.118915 -0.493435 0.174976 
-0.451675 -0.235469 1.117384 
-0.232074 -0.454695 1.116908 
-0.113931 -0.497675 3.692434 
-0.122314 -0.495873 0.302335 
-0.499731 -0.092708 3.849646 
-0.499978 -0.092433 0.151725 
-0.365398 0.367833 0.699714 
-0.364485 0.368924 0.574085 
-0.350149 0.376672 0.354426 
-0.350187 0.348164 1.424496 
-0.343850 0.345314 1.646679 
-0.364519 0.362838 0.888073 
-0.356094 0.351831 1.217291 
-0.356945 0.354143 2.840623 
-0.340004 0.343108 1.912101 
-0.340031 0.343021 2.173934 
-0.355422 0.351570 2.666901 
-0.346538 0.346222 2.426356 
-0.363574 0.365226 3.183970 
-0.361856 0.359451 3.018272 
-0.353327 0.374933 3.620159 
-0.362870 0.370661 3.455182 
-0.197889 0.470459 3.777544 
-0.172484 0.481056 0.258143 
-0.426982 0.276286 3.808550 
-0.435860 0.263689 0.219102 
-0.159046 0.489972 3.633530 
-0.481569 0.177362 3.673772 
-0.214584 0.472928 3.461894 
-0.466723 0.224914 3.457274 
-0.457244 0.230555 0.972266 
-0.233263 0.454900 0.971364 
-0.189270 0.480830 0.799829 
-0.480714 0.189434 0.800363 
-0.444534 0.183845 2.039971 
-0.180794 0.448473 2.039298 
-0.476703 0.145897 2.627268 
-0.149762 0.474645 2.628316 
-0.471868 0.199788 3.095392 
-0.200397 0.471319 3.097454 
-0.198528 0.477146 0.425938 
-0.465793 0.221505 0.421279 
-0.483299 0.186824 0.604386 
-0.182749 0.486249 0.602357 
-0.466596 0.197397 1.116266 
-0.201950 0.463070 1.115591 
-0.456434 0.180970 2.428032 
-0.179827 0.453402 2.430513 
-0.461150 0.187945 1.303781 
-0.192323 0.458768 1.303011 
-0.454591 0.187801 1.512868 
-0.188669 0.453650 1.510101 
-0.170096 0.454343 1.760508 
-0.452260 0.173503 1.761672 
-0.459418 0.211902 2.876443 
-0.214752 0.456198 2.879765 
-0.477362 0.198361 3.271128 
-0.194234 0.479990 3.273295 
-0.321266 0.394247 0.187914 
-0.321310 0.393632 3.823109 
-0.363610 0.369946 3.329584 
-0.361323 0.357923 1.045038 
-0.094498 0.510318 0.698007 
-0.508845 0.096556 0.699460 
-0.432494 0.219910 2.257635 
-0.216414 0.432481 2.258907 
-0.417566 0.265136 2.539963 
-0.267812 0.415161 2.540714 
-0.473557 0.090410 1.893749 
-0.086827 0.476448 1.892943 
-0.099629 0.496309 3.868263 
-0.494320 0.119175 0.170827 
-0.497104 0.124609 0.298368 
-0.093053 0.497943 0.141070 
-0.491076 0.131505 3.830984 
0.368031 0.368000 0.674065 
0.361561 0.359851 0.240615 
0.350652 0.347746 1.340290 
0.363087 0.362755 0.889749 
0.357748 0.357745 1.079015 
0.346371 0.346097 1.628417 
0.340658 0.342615 1.908289 
0.356983 0.355845 2.838954 
0.345402 0.345291 2.427785 
0.353433 0.352555 2.664963 
0.340157 0.341162 2.175930 
0.359220 0.358345 2.970184 
0.352848 0.381307 3.350942 
0.365645 0.366872 3.600594 
0.466782 0.205955 3.772157 
0.205739 0.466357 3.774727 
0.487580 0.168450 3.623213 
0.167071 0.488128 3.625877 
0.481612 0.181997 0.346887 
0.183023 0.481253 0.343456 
0.190025 0.456780 1.350829 
0.458396 0.187363 1.348981 
0.182643 0.447479 2.039133 
0.444458 0.183465 2.038674 
0.476487 0.145827 2.627922 
0.146411 0.475252 2.627935 
0.154943 0.485977 3.035785 
0.486707 0.153395 3.035143 
0.192556 0.481817 3.462900 
0.481473 0.196047 3.460353 
0.463075 0.189934 1.205986 
0.191389 0.462736 1.207681 
0.188229 0.452694 1.501344 
0.456514 0.186837 1.503015 
0.466869 0.220909 3.240508 
0.169416 0.489287 3.261041 
[...]
POINT_DATA 507
SCALARS u float 1
LOOKUP_TABLE default
0.007043
0.008244
0.009600
0.009288
0.007064
0.008297
0.009232
0.008853
0.006980
0.007240
0.007689
0.008587
0.009037
0.009348
0.009631
0.009523
0.009602
0.008523
0.007886
0.007465
0.007123
0.007298
0.007686
0.008656
0.008890
0.009212
0.009207
0.009097
0.009244
0.008303
0.007661
0.007255
0.006461
0.005352
0.004070
0.004278
0.006131
0.007957
0.008605
0.007408
0.004738
0.003322
0.005205
0.006901
0.007834
0.008180
0.005928
0.003833
0.003725
0.005259
0.006562
0.008586
0.006197
0.003880
0.004257
0.006662
0.007758
0.007800
0.006415
0.004848
0.004237
0.004881
0.006439
0.007790
0.008124
0.006344
0.004186
0.003780
0.005959
0.008389
0.007497
0.005775
0.004229
0.004221
0.005963
0.008150
0.008880
0.006639
0.004517
0.003943
0.005344
0.006770
0.007909
0.008141
0.005900
0.004138
0.004196
0.006010
0.007625
0.008406
0.006158
0.003902
0.004215
0.006367
0.007986
0.008212
0.006625
0.004599
0.004027
0.005007
0.006565
0.007554
0.007247
0.005915
0.003995
0.003766
0.006280
0.008250
0.003921
0.008182
0.007013
0.005756
0.005836
0.007730
0.004227
0.007757
0.006684
0.007959
0.004581
0.007073
0.003573
0.006604
0.008529
0.008002
0.006617
0.006468
0.007259
0.006805
0.007426
0.007571
0.004173
0.004082
0.007858
0.008047
0.005965
0.006314
0.004735
0.004521
0.003822
0.003923
0.004320
0.004520
0.004654
0.004373
0.006912
0.006813
0.007871
0.008170
0.007196
0.006585
0.004982
0.004997
0.006454
0.006939
0.008144
0.008062
0.005424
0.008752
0.004613
0.005246
0.005176
0.005335
0.004056
0.003936
0.009105
0.008263
0.007274
0.007582
0.009188
0.008449
0.004072
0.007173
0.004015
0.005935
0.006952
0.007499
0.006517
0.004270
0.007110
0.007609
0.006876
0.004026
0.006299
0.003679
0.007022
0.003756
0.008135
0.008457
0.008537
0.008815
0.004648
0.004757
0.004402
0.004393
0.004202
0.004123
0.007765
0.007476
0.006227
0.006467
0.006012
0.006127
0.006088
0.005494
0.003999
0.003907
0.003300
0.003522
0.004964
0.004825
0.006407
0.006635
0.007970
0.007854
0.007007
0.006885
0.005206
0.005092
0.007362
0.007674
0.008705
0.009067
0.005045
0.006324
0.006116
0.005316
0.005230
0.008863
0.009275
0.007331
0.007460
0.007517
0.007984
0.008860
0.009169
0.003800
0.004193
0.006298
0.008218
0.006383
0.005504
0.008180
0.008163
0.003794
0.004493
0.008599
0.006696
0.004333
0.006441
0.005978
0.004526
0.006930
0.006766
0.007657
0.007725
0.005649
0.006988
0.004405
0.004798
0.006368
0.006465
0.004420
0.004342
0.003891
0.003358
0.007951
0.008163
0.004972
0.005302
0.005293
0.005991
0.003927
0.004031
0.007691
0.007779
0.006639
0.007310
0.008357
0.008508
0.007129
0.007693
0.005134
0.005049
0.007597
0.008199
0.003522
0.003840
0.007504
0.007348
0.003782
0.007248
0.003933
0.003666
0.005047
0.005431
0.007634
0.007809
0.004023
0.003686
0.006994
0.008574
0.007605
0.007034
0.008309
0.004177
0.006701
0.009129
0.005389
0.007609
0.006451
0.003750
0.007843
0.007230
0.008110
0.005090
0.006552
0.003923
0.006054
0.007217
0.006697
0.006058
0.005612
0.006398
0.005802
0.008556
0.008924
0.003443
0.003935
0.008053
0.008057
0.006114
0.005998
0.004213
0.004647
0.008660
0.008315
0.007930
0.007485
0.003991
0.003916
0.004700
0.004502
0.004188
0.004291
0.006244
0.006566
0.005147
0.004853
0.007113
0.007117
0.007994
0.007911
0.005228
0.007237
0.004630
0.005136
0.006044
0.005938
0.003632
0.003857
0.005197
0.004970
0.007879
0.006810
0.007711
0.007719
0.007621
0.006915
0.010278
0.009292
0.009821
0.009524
0.009745
0.009025
0.010216
0.010186
0.009019
0.010013
0.009675
0.009197
0.008483
0.008977
0.009667
0.009955
0.008480
0.010098
0.009903
0.009921
0.010193
0.009855
0.009343
0.008117
0.009386
0.010195
0.009633
0.010252
0.008893
0.009639
0.008821
0.010441
0.010092
0.009120
0.009682
0.009163
0.008412
0.010313
0.008177
0.009079
0.010308
0.009920
0.009656
0.009920
0.010174
0.010195
0.010233
0.007974
0.009215
0.009632
0.003923
0.009268
0.008226
0.008901
0.008585
0.006043
0.008251
0.008215
0.007486
0.005557
0.008795
0.006195
0.008639
0.006196
0.008907
0.006271
0.005452
0.003273
0.008781
0.008908
0.004691
0.003981
0.009005
0.003095
0.005470
0.008022
0.008051
0.009666
0.009783
0.009622
0.008032
0.002349
0.003237
0.002324
0.002635
0.005536
0.003001
0.005575
0.005441
0.002585
0.005262
0.005510
0.005441
0.008196
0.003018
0.008348
0.008717
0.009035
0.006361
0.005837
0.003648
0.003358
0.009598
0.007536
0.004830
0.004835
0.002158
0.004925
0.002047
0.002544
0.006358
0.006049
0.005459
0.007944
0.006448
0.006393
0.003362
0.008960
0.008823
0.008765
0.008896
0.009040
0.005945
0.005780
0.005650
0.006102
0.009960
0.005687
0.008471
0.005412
0.005385
0.003011
0.007966
0.003486
0.008221
0.008390
0.009275
0.009972
0.006062
