# vtk DataFile Version 2.0
Unstructured Grid Example
ASCII
DATASET UNSTRUCTURED_GRID
POINTS 507 float
0.000263 0.498423 -0.026564 
0.496662 0.001114 -0.030951 
0.000632 -0.495712 -0.036018 
-0.495332 0.000429 -0.034781 
-0.000016 0.498876 4.026670 
0.496663 0.000967 4.031160 
-0.000109 -0.496502 4.034710 
-0.495927 0.000785 4.033194 
0.190532 0.461246 -0.026355 
0.351582 0.353072 -0.027282 
0.459422 0.191691 -0.028944 
0.459586 -0.188956 -0.032273 
0.351742 -0.349884 -0.033902 
0.190922 -0.458332 -0.035137 
-0.189443 -0.458348 -0.036167 
-0.350064 -0.351244 -0.035742 
-0.457565 -0.189950 -0.035993 
-0.458056 0.191037 -0.031971 
-0.351091 0.352145 -0.029664 
-0.189820 0.460388 -0.028124 
0.190272 0.461043 4.026878 
0.351693 0.353251 4.027514 
0.459142 0.191684 4.028908 
0.458821 -0.189207 4.032489 
0.351505 -0.350896 4.033425 
0.190151 -0.458642 4.034633 
-0.190018 -0.458928 4.034636 
-0.350617 -0.351655 4.034198 
-0.458081 -0.190072 4.034693 
-0.458351 0.191467 4.031170 
-0.351222 0.352664 4.028840 
-0.190144 0.460661 4.027358 
-0.000394 0.492976 0.176621 
-0.000984 0.486744 0.384759 
-0.000513 0.484942 0.596913 
0.000222 0.486989 0.809591 
0.000499 0.491713 1.021629 
0.001319 0.497927 1.229967 
0.000510 0.503993 1.432266 
0.000152 0.508093 1.626797 
-0.000705 0.510991 1.814115 
-0.000864 0.512521 2.000117 
-0.000205 0.513058 2.185293 
0.000753 0.508616 2.375400 
0.001228 0.501636 2.570467 
0.000714 0.497397 2.769208 
-0.000798 0.492692 2.978839 
0.000201 0.487933 3.191995 
-0.000200 0.486134 3.402410 
-0.000152 0.486499 3.614582 
-0.000245 0.492414 3.823605 
0.000059 -0.493470 0.168221 
-0.000669 -0.489734 0.378964 
-0.000572 -0.486613 0.594049 
-0.000289 -0.486815 0.809209 
0.000141 -0.488414 1.022350 
0.000212 -0.493971 1.228688 
0.000565 -0.500984 1.429452 
0.000056 -0.508139 1.622832 
-0.000194 -0.513378 1.812511 
0.000101 -0.516005 1.999579 
0.000027 -0.512889 2.186806 
0.000199 -0.506582 2.376575 
0.000360 -0.498580 2.570600 
0.000380 -0.493966 2.769903 
0.000444 -0.489527 2.978439 
0.000042 -0.487108 3.190838 
-0.000069 -0.486847 3.405566 
-0.000506 -0.489422 3.619872 
-0.000263 -0.493317 3.830985 
0.492532 -0.000709 0.172681 
0.487756 -0.002266 0.382081 
0.484776 -0.001764 0.595478 
0.487130 -0.000379 0.809415 
0.492300 0.000741 1.021165 
0.497374 0.002915 1.230544 
0.503026 0.000815 1.433407 
0.506540 -0.000284 1.624217 
0.511399 -0.001523 1.812612 
0.514757 -0.001962 1.999371 
0.513491 -0.001068 2.185013 
0.508105 0.000996 2.375755 
0.501065 0.001745 2.570184 
0.496024 0.001059 2.769515 
0.492126 -0.000092 2.979142 
0.487614 -0.000832 3.190495 
0.484862 -0.001624 3.404425 
0.487093 -0.001499 3.618626 
0.492013 -0.000424 3.827682 
-0.492590 -0.001514 0.169151 
-0.488608 -0.002423 0.379854 
-0.486388 -0.001888 0.594654 
-0.486960 0.000023 0.809147 
-0.490146 0.001950 1.021863 
-0.495594 0.002483 1.229749 
-0.501901 0.001323 1.430943 
-0.507811 -0.000419 1.623781 
-0.511914 -0.001617 1.812548 
-0.515041 -0.002280 1.999600 
-0.512988 -0.001567 2.186334 
-0.507628 -0.000410 2.376396 
-0.500511 0.001938 2.571527 
-0.497009 0.002123 2.772864 
-0.490983 0.002268 2.979674 
-0.487492 -0.000074 3.191551 
-0.487032 -0.001582 3.405640 
-0.487845 -0.002422 3.620237 
-0.491920 -0.000852 3.830099 
0.341471 -0.344720 0.681177 
0.347098 -0.350309 0.178577 
0.356165 -0.355196 1.504097 
0.345116 -0.344942 0.951639 
0.360529 -0.361289 1.698686 
0.353148 -0.349781 1.240075 
0.363085 -0.365351 1.926036 
0.349893 -0.348435 2.771373 
0.359877 -0.358349 2.369622 
0.354000 -0.351026 2.594510 
0.362375 -0.363822 2.148822 
0.347932 -0.347522 2.912888 
0.355459 -0.332483 3.352875 
0.344456 -0.346896 3.647161 
0.197889 -0.451340 3.838136 
0.450340 -0.199286 3.836002 
0.158220 -0.464484 3.672134 
0.461941 -0.159831 3.670608 
0.170779 -0.459999 0.292880 
0.457074 -0.175813 0.295106 
0.190752 -0.457408 1.230465 
0.460031 -0.187904 1.231115 
0.193738 -0.477664 2.033921 
0.476229 -0.195949 2.033674 
0.149721 -0.476167 2.558167 
0.479434 -0.147069 2.557515 
0.468834 -0.147859 2.986102 
0.147683 -0.466919 2.985499 
0.450432 -0.183101 3.483412 
0.181146 -0.452495 3.483673 
0.207301 -0.440948 3.222589 
0.458948 -0.160953 3.247270 
0.447867 -0.190240 0.536630 
0.184843 -0.450111 0.535632 
0.458840 -0.159402 0.809332 
0.158024 -0.460160 0.808689 
0.456793 -0.181922 1.082432 
0.183808 -0.454966 1.081749 
0.192470 -0.460803 1.378312 
0.463761 -0.189795 1.379390 
0.467977 -0.194358 1.576880 
0.193995 -0.467007 1.574759 
0.181094 -0.480305 1.795770 
0.478698 -0.182509 1.796711 
0.186229 -0.471773 2.372772 
0.473677 -0.184606 2.371262 
0.189370 -0.455505 2.769461 
0.457747 -0.188301 2.769471 
0.339387 -0.350279 0.440834 
0.348736 -0.349410 3.898992 
0.367348 -0.321202 3.131758 
0.274648 -0.404998 3.063049 
0.230032 -0.457620 2.221945 
0.457337 -0.230891 2.221289 
0.093534 -0.505885 1.907917 
0.504598 -0.095123 1.908863 
0.098730 -0.484427 3.935625 
0.484040 -0.098897 3.932331 
0.272078 -0.423127 2.475055 
0.425853 -0.269773 2.474032 
0.186324 -0.458108 0.086941 
0.457375 -0.186974 0.089837 
-0.344075 -0.344070 0.778102 
-0.357130 -0.336570 0.305163 
-0.343440 -0.344629 0.582144 
-0.360687 -0.361608 1.699585 
-0.356434 -0.356069 1.514417 
-0.351458 -0.349059 1.260953 
-0.346369 -0.344411 1.021607 
-0.362971 -0.365063 1.904207 
-0.351452 -0.349562 2.773513 
-0.354015 -0.351872 2.581718 
-0.357934 -0.356668 2.425705 
-0.362670 -0.364619 2.066513 
-0.346961 -0.345825 2.968059 
-0.344050 -0.344611 3.260138 
-0.356720 -0.336286 3.693657 
-0.344149 -0.345058 3.424159 
-0.462362 -0.168147 3.802107 
-0.462491 -0.168597 0.195949 
-0.248430 -0.426148 3.842326 
-0.254278 -0.423100 0.149764 
-0.212990 -0.467418 2.162200 
-0.466587 -0.214763 2.161636 
-0.145086 -0.464755 0.820084 
-0.464760 -0.144514 0.819818 
-0.170027 -0.487032 1.988924 
-0.485840 -0.172255 1.988900 
-0.176710 -0.465856 2.565115 
-0.468119 -0.174724 2.566192 
-0.453430 -0.186168 2.975036 
-0.187344 -0.452260 2.974277 
-0.450122 -0.191900 0.385365 
-0.209149 -0.442947 0.379819 
-0.449335 -0.191330 3.610770 
-0.179673 -0.454790 3.587072 
-0.448763 -0.187757 0.589345 
-0.186517 -0.449527 0.589538 
-0.450942 -0.185485 3.340483 
-0.182282 -0.451292 3.336616 
-0.185835 -0.450955 3.116934 
-0.451208 -0.185889 3.118019 
-0.455828 -0.177113 1.022535 
-0.179329 -0.454166 1.023202 
-0.455754 -0.204322 1.359214 
-0.206214 -0.454406 1.358846 
-0.468207 -0.194630 1.576250 
-0.194465 -0.468308 1.575768 
-0.190997 -0.475356 1.768183 
-0.473842 -0.192558 1.768233 
-0.460290 -0.188374 2.772388 
-0.190141 -0.458130 2.771277 
-0.381519 -0.313053 3.879352 
-0.381356 -0.313276 0.118906 
-0.361512 -0.362411 2.231571 
-0.479799 -0.167958 2.358353 
-0.167764 -0.478810 2.358835 
-0.262886 -0.410546 0.909332 
-0.411453 -0.261760 0.909025 
-0.112302 -0.481643 3.900894 
-0.114873 -0.480745 0.094699 
-0.439617 -0.222962 1.179310 
-0.225530 -0.437332 1.179670 
-0.109851 -0.479599 3.755725 
-0.117571 -0.477620 0.234873 
-0.485240 -0.091291 3.925998 
-0.485051 -0.091508 0.072688 
-0.344591 0.342749 0.706722 
-0.345282 0.341924 0.558106 
-0.336150 0.355417 0.305384 
-0.356101 0.357631 1.495727 
-0.360895 0.359788 1.698021 
-0.345257 0.346528 0.929237 
-0.351631 0.354857 1.288854 
-0.350987 0.353107 2.769265 
-0.363805 0.361457 1.926406 
-0.363785 0.361522 2.148494 
-0.352140 0.355054 2.591617 
-0.358861 0.359101 2.370385 
-0.345972 0.344722 3.157235 
-0.347272 0.349091 2.964675 
-0.336733 0.353917 3.665259 
-0.342299 0.344787 3.477186 
-0.191773 0.453242 3.835531 
-0.167988 0.462057 0.202086 
-0.414550 0.267775 3.874014 
-0.423074 0.252858 0.153433 
-0.151567 0.464440 3.675343 
-0.461089 0.165896 3.730406 
-0.202580 0.441078 3.480189 
-0.439932 0.207287 3.484544 
-0.436620 0.224302 1.023812 
-0.222253 0.438394 1.024494 
-0.179344 0.453135 0.825085 
-0.453222 0.179220 0.824680 
-0.477088 0.192194 2.033997 
-0.194503 0.474109 2.034506 
-0.477933 0.150669 2.557685 
-0.147744 0.479491 2.556892 
-0.450658 0.193912 3.057728 
-0.192906 0.451306 3.056143 
-0.191019 0.448297 0.390334 
-0.443481 0.203830 0.377093 
-0.455331 0.170702 0.592359 
-0.173786 0.453099 0.593895 
-0.453947 0.197353 1.182545 
-0.193908 0.456615 1.183055 
-0.472048 0.184469 2.372024 
-0.185334 0.474342 2.370147 
-0.462537 0.193911 1.376837 
-0.190599 0.464339 1.377420 
-0.467500 0.194021 1.573746 
-0.193364 0.468212 1.575839 
-0.181894 0.477795 1.797102 
-0.479371 0.179317 1.796220 
-0.448020 0.211704 2.810774 
-0.209471 0.450493 2.808257 
-0.450517 0.185439 3.262936 
-0.185340 0.449852 3.261150 
-0.312957 0.381599 0.123844 
-0.312594 0.382334 3.885975 
-0.343588 0.343498 3.329004 
-0.347675 0.350247 1.106672 
-0.089905 0.477236 0.706666 
-0.478351 0.088348 0.705566 
-0.457252 0.228594 2.221971 
-0.231239 0.457261 2.221009 
-0.424287 0.272145 2.473696 
-0.270120 0.426106 2.473129 
-0.505353 0.091365 1.909045 
-0.094076 0.503166 1.909655 
-0.097399 0.485630 3.928648 
-0.480196 0.114177 0.097113 
-0.476956 0.114747 0.235537 
-0.091039 0.486591 0.080446 
-0.476853 0.127716 3.902379 
0.344409 0.340809 0.680797 
0.349317 0.346962 0.184577 
0.355749 0.357947 1.419560 
0.346718 0.346214 0.930903 
0.350380 0.350382 1.144951 
0.358987 0.359195 1.682008 
0.363310 0.361829 1.922434 
0.350959 0.351820 2.770527 
0.359721 0.359805 2.367719 
0.353644 0.354308 2.593838 
0.363689 0.362929 2.144842 
0.349266 0.349928 2.914197 
0.331696 0.354166 3.350455 
0.344405 0.343477 3.643288 
0.450597 0.198257 3.832886 
0.198421 0.450918 3.830941 
0.462044 0.157047 3.668403 
0.158091 0.461629 3.666388 
0.458390 0.169624 0.297303 
0.173589 0.456875 0.299783 
0.192338 0.465843 1.425309 
0.464621 0.194352 1.426708 
0.193104 0.474861 2.031846 
0.477146 0.192482 2.032194 
0.478097 0.150722 2.557464 
0.150280 0.479031 2.557454 
0.146525 0.470071 2.985253 
0.469519 0.147696 2.985739 
0.181907 0.450376 3.479153 
0.450636 0.179266 3.481080 
0.461081 0.192407 1.281895 
0.191306 0.461337 1.280612 
0.193697 0.468935 1.568770 
0.466045 0.194750 1.567505 
0.441471 0.206834 3.220937 
[...]
POINT_DATA 507
SCALARS u float 1
LOOKUP_TABLE default
0.007043
0.008244
0.009600
0.009288
0.007064
0.008297
0.009232
0.008853
0.006980
0.007240
0.007689
0.008587
0.009037
0.009348
0.009631
0.009523
0.009602
0.008523
0.007886
0.007465
0.007123
0.007298
0.007686
0.008656
0.008890
0.009212
0.009207
0.009097
0.009244
0.008303
0.007661
0.007255
0.006461
0.005352
0.004070
0.004278
0.006131
0.007957
0.008605
0.007408
0.004738
0.003322
0.005205
0.006901
0.007834
0.008180
0.005928
0.003833
0.003725
0.005259
0.006562
0.008586
0.006197
0.003880
0.004257
0.006662
0.007758
0.007800
0.006415
0.004848
0.004237
0.004881
0.006439
0.007790
0.008124
0.006344
0.004186
0.003780
0.005959
0.008389
0.007497
0.005775
0.004229
0.004221
0.005963
0.008150
0.008880
0.006639
0.004517
0.003943
0.005344
0.006770
0.007909
0.008141
0.005900
0.004138
0.004196
0.006010
0.007625
0.008406
0.006158
0.003902
0.004215
0.006367
0.007986
0.008212
0.006625
0.004599
0.004027
0.005007
0.006565
0.007554
0.007247
0.005915
0.003995
0.003766
0.006280
0.008250
0.003921
0.008182
0.007013
0.005756
0.005836
0.007730
0.004227
0.007757
0.006684
0.007959
0.004581
0.007073
0.003573
0.006604
0.008529
0.008002
0.006617
0.006468
0.007259
0.006805
0.007426
0.007571
0.004173
0.004082
0.007858
0.008047
0.005965
0.006314
0.004735
0.004521
0.003822
0.003923
0.004320
0.004520
0.004654
0.004373
0.006912
0.006813
0.007871
0.008170
0.007196
0.006585
0.004982
0.004997
0.006454
0.006939
0.008144
0.008062
0.005424
0.008752
0.004613
0.005246
0.005176
0.005335
0.004056
0.003936
0.009105
0.008263
0.007274
0.007582
0.009188
0.008449
0.004072
0.007173
0.004015
0.005935
0.006952
0.007499
0.006517
0.004270
0.007110
0.007609
0.006876
0.004026
0.006299
0.003679
0.007022
0.003756
0.008135
0.008457
0.008537
0.008815
0.004648
0.004757
0.004402
0.004393
0.004202
0.004123
0.007765
0.007476
0.006227
0.006467
0.006012
0.006127
0.006088
0.005494
0.003999
0.003907
0.003300
0.003522
0.004964
0.004825
0.006407
0.006635
0.007970
0.007854
0.007007
0.006885
0.005206
0.005092
0.007362
0.007674
0.008705
0.009067
0.005045
0.006324
0.006116
0.005316
0.005230
0.008863
0.009275
0.007331
0.007460
0.007517
0.007984
0.008860
0.009169
0.003800
0.004193
0.006298
0.008218
0.006383
0.005504
0.008180
0.008163
0.003794
0.004493
0.008599
0.006696
0.004333
0.006441
0.005978
0.004526
0.006930
0.006766
0.007657
0.007725
0.005649
0.006988
0.004405
0.004798
0.006368
0.006465
0.004420
0.004342
0.003891
0.003358
0.007951
0.008163
0.004972
0.005302
0.005293
0.005991
0.003927
0.004031
0.007691
0.007779
0.006639
0.007310
0.008357
0.008508
0.007129
0.007693
0.005134
0.005049
0.007597
0.008199
0.003522
0.003840
0.007504
0.007348
0.003782
0.007248
0.003933
0.003666
0.005047
0.005431
0.007634
0.007809
0.004023
0.003686
0.006994
0.008574
0.007605
0.007034
0.008309
0.004177
0.006701
0.009129
0.005389
0.007609
0.006451
0.003750
0.007843
0.007230
0.008110
0.005090
0.006552
0.003923
0.006054
0.007217
0.006697
0.006058
0.005612
0.006398
0.005802
0.008556
0.008924
0.003443
0.003935
0.008053
0.008057
0.006114
0.005998
0.004213
0.004647
0.008660
0.008315
0.007930
0.007485
0.003991
0.003916
0.004700
0.004502
0.004188
0.004291
0.006244
0.006566
0.005147
0.004853
0.007113
0.007117
0.007994
0.007911
0.005228
0.007237
0.004630
0.005136
0.006044
0.005938
0.003632
0.003857
0.005197
0.004970
0.007879
0.006810
0.007711
0.007719
0.007621
0.006915
0.010278
0.009292
0.009821
0.009524
0.009745
0.009025
0.010216
0.010186
0.009019
0.010013
0.009675
0.009197
0.008483
0.008977
0.009667
0.009955
0.008480
0.010098
0.009903
0.009921
0.010193
0.009855
0.009343
0.008117
0.009386
0.010195
0.009633
0.010252
0.008893
0.009639
0.008821
0.010441
0.010092
0.009120
0.009682
0.009163
0.008412
0.010313
0.008177
0.009079
0.010308
0.009920
0.009656
0.009920
0.010174
0.010195
0.010233
0.007974
0.009215
0.009632
0.003923
0.009268
0.008226
0.008901
0.008585
0.006043
0.008251
0.008215
0.007486
0.005557
0.008795
0.006195
0.008639
0.006196
0.008907
0.006271
0.005452
0.003273
0.008781
0.008908
0.004691
0.003981
0.009005
0.003095
0.005470
0.008022
0.008051
0.009666
0.009783
0.009622
0.008032
0.002349
0.003237
0.002324
0.002635
0.005536
0.003001
0.005575
0.005441
0.002585
0.005262
0.005510
0.005441
0.008196
0.003018
0.008348
0.008717
0.009035
0.006361
0.005837
0.003648
0.003358
0.009598
0.007536
0.004830
0.004835
0.002158
0.004925
0.002047
0.002544
0.006358
0.006049
0.005459
0.007944
0.006448
0.006393
0.003362
0.008960
0.008823
0.008765
0.008896
0.009040
0.005945
0.005780
0.005650
0.006102
0.009960
0.005687
0.008471
0.005412
0.005385
0.003011
0.007966
0.003486
0.008221
0.008390
0.009275
0.009972
0.006062
