# vtk DataFile Version 2.0
Unstructured Grid Example
ASCII
DATASET UNSTRUCTURED_GRID
POINTS 507 float
-0.000066 0.500395 0.006652 
0.500836 -0.000279 0.007751 
-0.000158 -0.501074 0.009019 
-0.501169 -0.000108 0.008710 
0.000004 0.500281 3.993321 
0.500836 -0.000242 3.992197 
0.000027 -0.500876 3.991308 
-0.501020 -0.000197 3.991688 
0.191545 0.462114 0.006600 
0.354047 0.353674 0.006832 
0.462570 0.191254 0.007248 
0.462529 -0.191939 0.008082 
0.354007 -0.354472 0.008490 
0.191447 -0.462843 0.008799 
-0.191817 -0.462839 0.009057 
-0.354427 -0.354132 0.008950 
-0.463035 -0.191690 0.009013 
-0.462912 0.191418 0.008006 
-0.354170 0.353906 0.007428 
-0.191723 0.462328 0.007043 
0.191610 0.462164 3.993269 
0.354019 0.353629 3.993110 
0.462640 0.191256 3.992761 
0.462721 -0.191876 3.991864 
0.354066 -0.354219 3.991630 
0.191640 -0.462766 3.991327 
-0.191673 -0.462694 3.991327 
-0.354289 -0.354029 3.991436 
-0.462906 -0.191660 3.991312 
-0.462839 0.191310 3.992195 
-0.354137 0.353776 3.992778 
-0.191642 0.462260 3.993149 
0.000099 0.501759 0.205854 
0.000246 0.503319 0.403817 
0.000128 0.503771 0.600773 
-0.000056 0.503258 0.797598 
-0.000125 0.502075 0.994584 
-0.000330 0.500519 1.192496 
-0.000128 0.499000 1.391920 
-0.000038 0.497973 1.593290 
0.000177 0.497248 1.796466 
0.000216 0.496864 1.999971 
0.000051 0.496730 2.203683 
-0.000189 0.497842 2.406160 
-0.000308 0.499590 2.607396 
-0.000179 0.500652 2.807711 
0.000200 0.501830 3.005299 
-0.000050 0.503022 3.202005 
0.000050 0.503472 3.399397 
0.000038 0.503381 3.596349 
0.000061 0.501900 3.794089 
-0.000015 -0.501635 0.207958 
0.000168 -0.502571 0.405268 
0.000143 -0.503352 0.601490 
0.000072 -0.503302 0.797694 
-0.000035 -0.502901 0.994403 
-0.000053 -0.501510 1.192816 
-0.000142 -0.499754 1.392625 
-0.000014 -0.497962 1.594282 
0.000049 -0.496650 1.796867 
-0.000025 -0.495992 2.000105 
-0.000007 -0.496772 2.203304 
-0.000050 -0.498352 2.405866 
-0.000090 -0.500356 2.607362 
-0.000095 -0.501511 2.807537 
-0.000111 -0.502622 3.005399 
-0.000011 -0.503228 3.202294 
0.000017 -0.503294 3.398606 
0.000127 -0.502649 3.595024 
0.000066 -0.501674 3.792241 
0.501870 0.000178 0.206841 
0.503066 0.000567 0.404487 
0.503812 0.000442 0.601132 
0.503223 0.000095 0.797642 
0.501928 -0.000186 0.994700 
0.500658 -0.000730 1.192351 
0.499242 -0.000204 1.391634 
0.498362 0.000071 1.593936 
0.497145 0.000381 1.796842 
0.496305 0.000491 2.000157 
0.496622 0.000267 2.203753 
0.497970 -0.000249 2.406071 
0.499733 -0.000437 2.607466 
0.500996 -0.000265 2.807634 
0.501972 0.000023 3.005223 
0.503102 0.000208 3.202380 
0.503791 0.000407 3.398892 
0.503232 0.000375 3.595336 
0.502000 0.000106 3.793068 
-0.501856 0.000379 0.207725 
-0.502853 0.000607 0.405045 
-0.503409 0.000473 0.601339 
-0.503266 -0.000006 0.797709 
-0.502468 -0.000488 0.994525 
-0.501103 -0.000622 1.192550 
-0.499524 -0.000331 1.392251 
-0.498044 0.000105 1.594045 
-0.497017 0.000405 1.796858 
-0.496233 0.000571 2.000100 
-0.496748 0.000392 2.203422 
-0.498090 0.000103 2.405911 
-0.499872 -0.000485 2.607130 
-0.500749 -0.000532 2.806795 
-0.502258 -0.000568 3.005090 
-0.503132 0.000018 3.202116 
-0.503247 0.000396 3.398588 
-0.503044 0.000607 3.594932 
-0.502023 0.000213 3.792463 
0.355287 -0.357053 0.680695 
0.353869 -0.355663 0.216260 
0.352899 -0.353142 1.471187 
0.355397 -0.355979 0.929008 
0.351807 -0.351616 1.674382 
0.353655 -0.354498 1.203858 
0.351167 -0.350599 1.919772 
0.354470 -0.354835 2.807169 
0.351970 -0.352352 2.399603 
0.353441 -0.354186 2.631977 
0.351344 -0.350982 2.162311 
0.354961 -0.355064 2.944678 
0.368460 -0.342891 3.350111 
0.355832 -0.355221 3.619324 
0.202496 -0.459127 3.798864 
0.459378 -0.202146 3.799398 
0.162895 -0.475186 3.643130 
0.475823 -0.162491 3.643513 
0.175999 -0.470494 0.325115 
0.469955 -0.178113 0.324476 
0.191489 -0.463074 1.195844 
0.462418 -0.192202 1.195682 
0.187311 -0.459411 2.037694 
0.459771 -0.186757 2.037756 
0.148336 -0.477713 2.595240 
0.476895 -0.149000 2.595403 
0.478948 -0.150725 3.012256 
0.150769 -0.479427 3.012407 
0.467295 -0.187343 3.469333 
0.187833 -0.466779 3.469267 
0.214297 -0.455281 3.231064 
0.475525 -0.165244 3.254372 
0.464308 -0.194389 0.547993 
0.192843 -0.464954 0.548735 
0.475910 -0.164601 0.796482 
0.163887 -0.475945 0.796716 
0.465547 -0.188025 1.051566 
0.187262 -0.466121 1.051749 
0.191059 -0.462224 1.341174 
0.461484 -0.191729 1.340904 
0.460428 -0.190586 1.543944 
0.190677 -0.460671 1.544475 
0.175740 -0.464536 1.779130 
0.464938 -0.175386 1.778894 
0.182144 -0.463707 2.401895 
0.463230 -0.182550 2.402273 
0.191835 -0.463551 2.807010 
0.462990 -0.192103 2.807007 
0.351828 -0.359584 0.461215 
0.354760 -0.354591 3.858407 
0.379120 -0.330589 3.147519 
0.282131 -0.416027 3.083951 
0.223557 -0.443825 2.241072 
0.443896 -0.223342 2.241237 
0.090307 -0.488095 1.901563 
0.488417 -0.089910 1.901326 
0.100658 -0.491199 3.893182 
0.491295 -0.100616 3.894007 
0.268387 -0.420958 2.509157 
0.420275 -0.268964 2.509413 
0.188919 -0.464409 0.129815 
0.464135 -0.189880 0.129076 
-0.355927 -0.355928 0.768664 
-0.366436 -0.343585 0.336988 
-0.356086 -0.355788 0.590828 
-0.351767 -0.351536 1.674981 
-0.352832 -0.352924 1.481917 
-0.354078 -0.354679 1.226069 
-0.355353 -0.355843 0.994463 
-0.351195 -0.350671 1.896379 
-0.354080 -0.354553 2.806633 
-0.353438 -0.353974 2.617603 
-0.352457 -0.352773 2.457490 
-0.351271 -0.350782 2.072880 
-0.355204 -0.355489 2.994973 
-0.355933 -0.355793 3.266131 
-0.366539 -0.343656 3.662835 
-0.355908 -0.355681 3.416169 
-0.472221 -0.170346 3.765019 
-0.472180 -0.170257 0.234680 
-0.253643 -0.432842 3.802889 
-0.259217 -0.429423 0.190637 
-0.206308 -0.451695 2.176000 
-0.451903 -0.205864 2.176142 
-0.149568 -0.480548 0.807315 
-0.480547 -0.149711 0.807382 
-0.164290 -0.468032 1.988333 
-0.468330 -0.163732 1.988340 
-0.176353 -0.468337 2.601717 
-0.467770 -0.176850 2.601448 
-0.464071 -0.192637 3.001692 
-0.192343 -0.464364 3.001883 
-0.463378 -0.194843 0.410317 
-0.214871 -0.454291 0.405831 
-0.463575 -0.194985 3.586046 
-0.184842 -0.467544 3.565058 
-0.465051 -0.192695 0.597557 
-0.193005 -0.464859 0.597509 
-0.465707 -0.190347 3.339284 
-0.188970 -0.466506 3.335765 
-0.191949 -0.465010 3.134690 
-0.464797 -0.192297 3.135166 
-0.467694 -0.184442 0.995665 
-0.183887 -0.468110 0.995498 
-0.455215 -0.207162 1.321665 
-0.206688 -0.455553 1.321757 
-0.460370 -0.190518 1.544349 
-0.190560 -0.460345 1.544469 
-0.186078 -0.460767 1.748999 
-0.461146 -0.185687 1.748986 
-0.462353 -0.192085 2.806914 
-0.191642 -0.462894 2.807193 
-0.388545 -0.317269 3.839046 
-0.388472 -0.317352 0.160953 
-0.351560 -0.351335 2.250190 
-0.469871 -0.164727 2.386351 
-0.164776 -0.470119 2.386231 
-0.270705 -0.424097 0.889680 
-0.423870 -0.270987 0.889757 
-0.114098 -0.488206 3.859575 
-0.117050 -0.487580 0.137935 
-0.446112 -0.229698 1.145958 
-0.229055 -0.446684 1.145868 
-0.112049 -0.489334 3.721638 
-0.120126 -0.487450 0.271207 
-0.493045 -0.092054 3.884876 
-0.493091 -0.092006 0.115256 
-0.355798 0.356259 0.702948 
-0.355625 0.356466 0.566712 
-0.343690 0.366865 0.331797 
-0.352915 0.352532 1.457363 
-0.351715 0.351992 1.670369 
-0.355631 0.355313 0.907067 
-0.354035 0.353227 1.250311 
-0.354196 0.353665 2.807697 
-0.350986 0.351574 1.918701 
-0.350991 0.351558 2.162196 
-0.353907 0.353178 2.632164 
-0.352224 0.352164 2.400530 
-0.355452 0.355765 3.171634 
-0.355126 0.354671 2.993541 
-0.345670 0.365235 3.640969 
-0.353378 0.358722 3.465335 
-0.195067 0.462515 3.804300 
-0.170410 0.472289 0.232277 
-0.421245 0.272359 3.838757 
-0.429960 0.258691 0.188801 
-0.155595 0.478191 3.652823 
-0.472119 0.172072 3.699904 
-0.209045 0.458232 3.470336 
-0.454362 0.216781 3.469857 
-0.447728 0.227670 0.996050 
-0.228183 0.447284 0.995880 
-0.184690 0.468051 0.811482 
-0.468029 0.184721 0.811584 
-0.459555 0.187698 2.037215 
-0.187120 0.460302 2.037087 
-0.477271 0.148099 2.595161 
-0.148831 0.476881 2.595360 
-0.462081 0.197077 3.078013 
-0.196941 0.462085 3.078392 
-0.195063 0.463835 0.409509 
-0.455498 0.213349 0.400891 
-0.470394 0.179385 0.598837 
-0.178613 0.470953 0.598452 
-0.460760 0.197377 1.146848 
-0.198239 0.460092 1.146720 
-0.463638 0.182585 2.402189 
-0.182368 0.463064 2.402659 
-0.461790 0.190698 1.337491 
-0.191528 0.461339 1.337345 
-0.460547 0.190671 1.540958 
-0.190835 0.460369 1.540434 
-0.175540 0.465164 1.777393 
-0.464769 0.176185 1.777614 
-0.454159 0.211811 2.846142 
-0.212316 0.453565 2.846769 
-0.464975 0.192398 3.267348 
-0.190130 0.466084 3.267691 
-0.317432 0.388411 0.158351 
-0.317288 0.388419 3.852117 
-0.354372 0.357742 3.329316 
-0.355025 0.354381 1.073477 
-0.092378 0.495053 0.702003 
-0.494774 0.092768 0.702278 
-0.443918 0.223917 2.241179 
-0.223255 0.443915 2.241420 
-0.420667 0.268370 2.509386 
-0.268877 0.420211 2.509529 
-0.488228 0.090851 1.900807 
-0.090172 0.488776 1.900654 
-0.098600 0.491382 3.896126 
-0.487803 0.116869 0.136814 
-0.487807 0.120058 0.269377 
-0.092124 0.492705 0.113097 
-0.484513 0.129757 3.863927 
0.357131 0.355453 0.677171 
0.355911 0.353904 0.214758 
0.353004 0.352453 1.376867 
0.355534 0.355122 0.908738 
0.354348 0.354348 1.109439 
0.352193 0.352141 1.653145 
0.351110 0.351481 1.914816 
0.354203 0.353988 2.807380 
0.352009 0.351988 2.400069 
0.353531 0.353364 2.632144 
0.351015 0.351206 2.161585 
0.354627 0.354461 2.944350 
0.343088 0.368784 3.350717 
0.355844 0.356077 3.620294 
0.459314 0.202403 3.800179 
0.202362 0.459233 3.800666 
0.475797 0.163189 3.644065 
0.162927 0.475901 3.644569 
0.470897 0.176288 0.324008 
0.178670 0.470005 0.323305 
0.191092 0.460962 1.385196 
0.461268 0.190588 1.384846 
0.187470 0.460113 2.035771 
0.459541 0.187626 2.035684 
0.477230 0.148086 2.595411 
0.148196 0.476996 2.595414 
0.151059 0.478638 3.012468 
0.478776 0.150765 3.012347 
0.187642 0.467309 3.470399 
0.467244 0.188304 3.469917 
0.462155 0.191075 1.241012 
0.191351 0.462091 1.241333 
0.190752 0.460188 1.532456 
0.460912 0.190488 1.532772 
0.455150 0.214414 3.231477 
0.165338 0.475442 3.254483 
[...]
POINT_DATA 507
SCALARS u float 1
LOOKUP_TABLE default
0.007043
0.008244
0.009600
0.009288
0.007064
0.008297
0.009232
0.008853
0.006980
0.007240
0.007689
0.008587
0.009037
0.009348
0.009631
0.009523
0.009602
0.008523
0.007886
0.007465
0.007123
0.007298
0.007686
0.008656
0.008890
0.009212
0.009207
0.009097
0.009244
0.008303
0.007661
0.007255
0.006461
0.005352
0.004070
0.004278
0.006131
0.007957
0.008605
0.007408
0.004738
0.003322
0.005205
0.006901
0.007834
0.008180
0.005928
0.003833
0.003725
0.005259
0.006562
0.008586
0.006197
0.003880
0.004257
0.006662
0.007758
0.007800
0.006415
0.004848
0.004237
0.004881
0.006439
0.007790
0.008124
0.006344
0.004186
0.003780
0.005959
0.008389
0.007497
0.005775
0.004229
0.004221
0.005963
0.008150
0.008880
0.006639
0.004517
0.003943
0.005344
0.006770
0.007909
0.008141
0.005900
0.004138
0.004196
0.006010
0.007625
0.008406
0.006158
0.003902
0.004215
0.006367
0.007986
0.008212
0.006625
0.004599
0.004027
0.005007
0.006565
0.007554
0.007247
0.005915
0.003995
0.003766
0.006280
0.008250
0.003921
0.008182
0.007013
0.005756
0.005836
0.007730
0.004227
0.007757
0.006684
0.007959
0.004581
0.007073
0.003573
0.006604
0.008529
0.008002
0.006617
0.006468
0.007259
0.006805
0.007426
0.007571
0.004173
0.004082
0.007858
0.008047
0.005965
0.006314
0.004735
0.004521
0.003822
0.003923
0.004320
0.004520
0.004654
0.004373
0.006912
0.006813
0.007871
0.008170
0.007196
0.006585
0.004982
0.004997
0.006454
0.006939
0.008144
0.008062
0.005424
0.008752
0.004613
0.005246
0.005176
0.005335
0.004056
0.003936
0.009105
0.008263
0.007274
0.007582
0.009188
0.008449
0.004072
0.007173
0.004015
0.005935
0.006952
0.007499
0.006517
0.004270
0.007110
0.007609
0.006876
0.004026
0.006299
0.003679
0.007022
0.003756
0.008135
0.008457
0.008537
0.008815
0.004648
0.004757
0.004402
0.004393
0.004202
0.004123
0.007765
0.007476
0.006227
0.006467
0.006012
0.006127
0.006088
0.005494
0.003999
0.003907
0.003300
0.003522
0.004964
0.004825
0.006407
0.006635
0.007970
0.007854
0.007007
0.006885
0.005206
0.005092
0.007362
0.007674
0.008705
0.009067
0.005045
0.006324
0.006116
0.005316
0.005230
0.008863
0.009275
0.007331
0.007460
0.007517
0.007984
0.008860
0.009169
0.003800
0.004193
0.006298
0.008218
0.006383
0.005504
0.008180
0.008163
0.003794
0.004493
0.008599
0.006696
0.004333
0.006441
0.005978
0.004526
0.006930
0.006766
0.007657
0.007725
0.005649
0.006988
0.004405
0.004798
0.006368
0.006465
0.004420
0.004342
0.003891
0.003358
0.007951
0.008163
0.004972
0.005302
0.005293
0.005991
0.003927
0.004031
0.007691
0.007779
0.006639
0.007310
0.008357
0.008508
0.007129
0.007693
0.005134
0.005049
0.007597
0.008199
0.003522
0.003840
0.007504
0.007348
0.003782
0.007248
0.003933
0.003666
0.005047
0.005431
0.007634
0.007809
0.004023
0.003686
0.006994
0.008574
0.007605
0.007034
0.008309
0.004177
0.006701
0.009129
0.005389
0.007609
0.006451
0.003750
0.007843
0.007230
0.008110
0.005090
0.006552
0.003923
0.006054
0.007217
0.006697
0.006058
0.005612
0.006398
0.005802
0.008556
0.008924
0.003443
0.003935
0.008053
0.008057
0.006114
0.005998
0.004213
0.004647
0.008660
0.008315
0.007930
0.007485
0.003991
0.003916
0.004700
0.004502
0.004188
0.004291
0.006244
0.006566
0.005147
0.004853
0.007113
0.007117
0.007994
0.007911
0.005228
0.007237
0.004630
0.005136
0.006044
0.005938
0.003632
0.003857
0.005197
0.004970
0.007879
0.006810
0.007711
0.007719
0.007621
0.006915
0.010278
0.009292
0.009821
0.009524
0.009745
0.009025
0.010216
0.010186
0.009019
0.010013
0.009675
0.009197
0.008483
0.008977
0.009667
0.009955
0.008480
0.010098
0.009903
0.009921
0.010193
0.009855
0.009343
0.008117
0.009386
0.010195
0.009633
0.010252
0.008893
0.009639
0.008821
0.010441
0.010092
0.009120
0.009682
0.009163
0.008412
0.010313
0.008177
0.009079
0.010308
0.009920
0.009656
0.009920
0.010174
0.010195
0.010233
0.007974
0.009215
0.009632
0.003923
0.009268
0.008226
0.008901
0.008585
0.006043
0.008251
0.008215
0.007486
0.005557
0.008795
0.006195
0.008639
0.006196
0.008907
0.006271
0.005452
0.003273
0.008781
0.008908
0.004691
0.003981
0.009005
0.003095
0.005470
0.008022
0.008051
0.009666
0.009783
0.009622
0.008032
0.002349
0.003237
0.002324
0.002635
0.005536
0.003001
0.005575
0.005441
0.002585
0.005262
0.005510
0.005441
0.008196
0.003018
0.008348
0.008717
0.009035
0.006361
0.005837
0.003648
0.003358
0.009598
0.007536
0.004830
0.004835
0.002158
0.004925
0.002047
0.002544
0.006358
0.006049
0.005459
0.007944
0.006448
0.006393
0.003362
0.008960
0.008823
0.008765
0.008896
0.009040
0.005945
0.005780
0.005650
0.006102
0.009960
0.005687
0.008471
0.005412
0.005385
0.003011
0.007966
0.003486
0.008221
0.008390
0.009275
0.009972
0.006062
