# vtk DataFile Version 2.0
Unstructured Grid Example
ASCII
DATASET UNSTRUCTURED_GRID
POINTS 507 float
-0.000301 0.501807 0.030440 
0.503825 -0.001276 0.035467 
-0.000724 -0.504913 0.041273 
-0.505349 -0.000492 0.039856 
0.000018 0.501288 3.969438 
0.503824 -0.001108 3.964293 
0.000125 -0.504008 3.960225 
-0.504667 -0.000900 3.961962 
0.192270 0.462735 0.030201 
0.355813 0.354105 0.031262 
0.464824 0.190941 0.033167 
0.464637 -0.194075 0.036982 
0.355629 -0.357758 0.038849 
0.191822 -0.466073 0.040265 
-0.193518 -0.466055 0.041444 
-0.357552 -0.356200 0.040958 
-0.466953 -0.192936 0.041245 
-0.466390 0.191691 0.036637 
-0.356375 0.355167 0.033993 
-0.193085 0.463717 0.032228 
0.192568 0.462967 3.969200 
0.355686 0.353900 3.968472 
0.465145 0.190950 3.966874 
0.465513 -0.193788 3.962771 
0.355901 -0.356599 3.961698 
0.192706 -0.465719 3.960314 
-0.192858 -0.465391 3.960310 
-0.356918 -0.355729 3.960812 
-0.466362 -0.192796 3.960245 
-0.466052 0.191198 3.964282 
-0.356225 0.354572 3.966952 
-0.192714 0.463405 3.968650 
0.000452 0.508049 0.226790 
0.001128 0.515190 0.417465 
0.000588 0.517255 0.603538 
-0.000255 0.514909 0.789009 
-0.000572 0.509496 0.975215 
-0.001511 0.502376 1.165660 
-0.000584 0.495424 1.363026 
-0.000174 0.490726 1.569293 
0.000808 0.487405 1.783826 
0.000990 0.485652 1.999866 
0.000235 0.485036 2.216853 
-0.000863 0.490126 2.428189 
-0.001407 0.498126 2.633842 
-0.000818 0.502983 2.835285 
0.000914 0.508374 3.024249 
-0.000230 0.513828 3.209173 
0.000229 0.515890 3.397238 
0.000174 0.515471 3.583291 
0.000281 0.508693 3.772951 
-0.000068 -0.507483 0.236416 
0.000767 -0.511764 0.424105 
0.000655 -0.515340 0.606819 
0.000332 -0.515109 0.789447 
-0.000161 -0.513276 0.974389 
-0.000243 -0.506908 1.167126 
-0.000648 -0.498873 1.366250 
-0.000065 -0.490674 1.573836 
0.000222 -0.484670 1.785664 
-0.000115 -0.481660 2.000482 
-0.000031 -0.485230 2.215119 
-0.000228 -0.492458 2.426843 
-0.000412 -0.501627 2.633690 
-0.000435 -0.506914 2.834489 
-0.000508 -0.512001 3.024707 
-0.000048 -0.514773 3.210499 
0.000079 -0.515073 3.393622 
0.000580 -0.512122 3.577229 
0.000302 -0.507658 3.764494 
0.508558 0.000812 0.231306 
0.514031 0.002596 0.420533 
0.517446 0.002022 0.605182 
0.514748 0.000434 0.789212 
0.508823 -0.000850 0.975746 
0.503009 -0.003341 1.164999 
0.496532 -0.000934 1.361718 
0.492506 0.000325 1.572249 
0.486938 0.001745 1.785548 
0.483090 0.002248 2.000720 
0.484540 0.001224 2.217174 
0.490712 -0.001142 2.427783 
0.498779 -0.002000 2.634166 
0.504556 -0.001213 2.834933 
0.509023 0.000105 3.023901 
0.514193 0.000954 3.210892 
0.517347 0.001861 3.394929 
0.514791 0.001718 3.578656 
0.509153 0.000486 3.768279 
-0.508491 0.001734 0.235350 
-0.513054 0.002776 0.423085 
-0.515598 0.002163 0.606126 
-0.514943 -0.000026 0.789518 
-0.511292 -0.002235 0.974946 
-0.505049 -0.002845 1.165910 
-0.497821 -0.001516 1.364542 
-0.491049 0.000480 1.572749 
-0.486348 0.001853 1.785621 
-0.482764 0.002612 2.000458 
-0.485117 0.001796 2.215660 
-0.491259 0.000470 2.427048 
-0.499414 -0.002220 2.632628 
-0.503427 -0.002433 2.831096 
-0.510333 -0.002599 3.023292 
-0.514333 0.000085 3.209682 
-0.514860 0.001813 3.393537 
-0.513928 0.002776 3.576811 
-0.509259 0.000976 3.765509 
0.365182 -0.365886 0.680349 
0.358718 -0.359496 0.243248 
0.350560 -0.351671 1.447618 
0.362760 -0.363883 0.912801 
0.345560 -0.344689 1.656977 
0.354018 -0.357876 1.177921 
0.342631 -0.340034 1.915286 
0.357748 -0.359418 2.832804 
0.346307 -0.348058 2.421074 
0.353041 -0.356450 2.658809 
0.343445 -0.341786 2.171971 
0.359995 -0.360465 2.967446 
0.377772 -0.350344 3.348132 
0.363978 -0.361182 3.599389 
0.205794 -0.464705 3.770739 
0.465850 -0.204194 3.773185 
0.166243 -0.482850 3.622359 
0.485765 -0.164396 3.624108 
0.179738 -0.478010 0.348201 
0.479180 -0.179761 0.345510 
0.192017 -0.467132 1.171050 
0.464128 -0.195281 1.170306 
0.182708 -0.446339 2.040396 
0.447983 -0.180175 2.040679 
0.147345 -0.478820 2.621790 
0.475077 -0.150384 2.622537 
0.486191 -0.152777 3.030986 
0.152979 -0.488385 3.031678 
0.479372 -0.190382 3.459250 
0.192622 -0.477008 3.458951 
0.219308 -0.465545 3.237133 
0.487397 -0.168316 3.259458 
0.476082 -0.197361 0.556131 
0.198573 -0.475585 0.558119 
0.488135 -0.168324 0.787279 
0.168085 -0.487249 0.788141 
0.471816 -0.192396 1.029462 
0.189735 -0.474110 1.030265 
0.190048 -0.463242 1.314576 
0.459853 -0.193114 1.313341 
0.455021 -0.187885 1.520357 
0.188301 -0.456133 1.522788 
0.171906 -0.453242 1.767213 
0.455083 -0.170285 1.766135 
0.179218 -0.457930 2.422751 
0.455749 -0.181078 2.424482 
0.193601 -0.469314 2.833901 
0.466745 -0.194827 2.833889 
0.360737 -0.366248 0.475811 
0.359074 -0.358301 3.829342 
0.387551 -0.337313 3.158807 
0.287490 -0.423926 3.098919 
0.218920 -0.433946 2.254771 
0.434271 -0.217935 2.255522 
0.087996 -0.475355 1.897013 
0.476829 -0.086176 1.895929 
0.102039 -0.496048 3.862787 
0.496491 -0.101847 3.866561 
0.265744 -0.419404 2.533579 
0.416280 -0.268384 2.534751 
0.190778 -0.468922 0.160520 
0.468976 -0.191962 0.157178 
-0.364415 -0.364420 0.761906 
-0.373101 -0.348608 0.359780 
-0.365143 -0.363779 0.597046 
-0.345379 -0.344324 1.657360 
-0.350253 -0.350671 1.458643 
-0.355955 -0.358703 1.201086 
-0.361786 -0.364029 0.975024 
-0.342761 -0.340364 1.890773 
-0.355961 -0.358127 2.830352 
-0.353025 -0.355480 2.643303 
-0.348534 -0.349984 2.480254 
-0.343107 -0.340873 2.077440 
-0.361108 -0.362410 3.014249 
-0.364444 -0.363801 3.270422 
-0.373571 -0.348934 3.640762 
-0.364330 -0.363288 3.410447 
-0.479283 -0.171921 3.738457 
-0.479119 -0.171446 0.262418 
-0.257376 -0.437636 3.774645 
-0.262755 -0.433951 0.219908 
-0.201522 -0.440435 2.185884 
-0.441387 -0.199491 2.186530 
-0.152778 -0.491859 0.798170 
-0.491854 -0.153434 0.798475 
-0.160181 -0.454425 1.987910 
-0.455791 -0.157627 1.987939 
-0.176097 -0.470114 2.627930 
-0.467521 -0.178372 2.626697 
-0.471691 -0.197270 3.020783 
-0.195923 -0.473032 3.021653 
-0.472871 -0.196950 0.428186 
-0.218969 -0.462416 0.424460 
-0.473772 -0.197603 3.568339 
-0.188543 -0.476677 3.549293 
-0.476715 -0.196231 0.603438 
-0.197652 -0.475840 0.603217 
-0.476282 -0.193828 3.338425 
-0.193760 -0.477402 3.335155 
-0.196327 -0.475076 3.147406 
-0.474529 -0.196886 3.147446 
-0.476192 -0.189690 0.976422 
-0.187151 -0.478096 0.975658 
-0.454830 -0.209196 1.294774 
-0.207027 -0.456374 1.295196 
-0.454758 -0.187574 1.521502 
-0.187762 -0.454643 1.522054 
-0.182555 -0.450319 1.735259 
-0.452054 -0.180767 1.735203 
-0.463830 -0.194742 2.831641 
-0.192717 -0.466306 2.832915 
-0.393576 -0.320288 3.810181 
-0.393568 -0.320271 0.191066 
-0.344434 -0.343404 2.263523 
-0.462762 -0.162413 2.406403 
-0.162635 -0.463895 2.405851 
-0.276306 -0.433803 0.875606 
-0.432763 -0.277595 0.875958 
-0.115384 -0.492907 3.829984 
-0.118609 -0.492475 0.168899 
-0.450762 -0.234522 1.122072 
-0.231578 -0.453381 1.121660 
-0.113622 -0.496306 3.697226 
-0.121955 -0.494491 0.297228 
-0.498634 -0.092601 3.855427 
-0.498848 -0.092363 0.145741 
-0.363823 0.365934 0.700245 
-0.363031 0.366880 0.572876 
-0.349090 0.375063 0.350713 
-0.350634 0.348880 1.429889 
-0.345140 0.346409 1.650566 
-0.363061 0.361603 0.891189 
-0.355756 0.352060 1.222709 
-0.356494 0.354065 2.835220 
-0.341806 0.344497 1.913184 
-0.341829 0.344422 2.172008 
-0.355173 0.351833 2.661202 
-0.347471 0.347197 2.422118 
-0.362241 0.363674 3.181946 
-0.360752 0.358667 3.014214 
-0.352071 0.373341 3.623574 
-0.361312 0.368702 3.456848 
-0.197426 0.469156 3.781934 
-0.172144 0.479617 0.253899 
-0.426041 0.275642 3.813507 
-0.434892 0.262869 0.214130 
-0.158480 0.488039 3.636696 
-0.480018 0.176494 3.678060 
-0.213676 0.470516 3.463279 
-0.464695 0.223579 3.459339 
-0.455682 0.230082 0.976169 
-0.232429 0.453650 0.975387 
-0.188518 0.478733 0.801741 
-0.478632 0.188660 0.802204 
-0.446999 0.184477 2.039519 
-0.181832 0.450414 2.038935 
-0.476797 0.146259 2.622000 
-0.149609 0.475012 2.622909 
-0.470262 0.199343 3.092541 
-0.199830 0.469804 3.094327 
-0.197960 0.474962 0.423243 
-0.464104 0.220167 0.417933 
-0.481182 0.185604 0.603476 
-0.182070 0.483740 0.601716 
-0.465639 0.197394 1.121284 
-0.201341 0.462582 1.120699 
-0.457616 0.181235 2.423792 
-0.180244 0.454987 2.425942 
-0.461255 0.188397 1.309312 
-0.192193 0.459190 1.308645 
-0.455568 0.188272 1.517477 
-0.189025 0.454753 1.515078 
-0.170989 0.456118 1.763278 
-0.454312 0.173943 1.764288 
-0.458555 0.211887 2.871471 
-0.214353 0.455766 2.874351 
-0.475329 0.197383 3.270508 
-0.193561 0.477708 3.272376 
-0.320636 0.393289 0.183063 
-0.320650 0.392776 3.827869 
-0.362094 0.367943 3.329540 
-0.360289 0.357342 1.049705 
-0.094150 0.507813 0.698663 
-0.506536 0.095934 0.699923 
-0.434368 0.220568 2.254935 
-0.217537 0.434357 2.256037 
-0.418075 0.265667 2.534946 
-0.267987 0.415989 2.535597 
-0.475964 0.090482 1.894907 
-0.087375 0.478471 1.894208 
-0.099461 0.495501 3.872835 
-0.493250 0.118796 0.165246 
-0.495578 0.123862 0.293611 
-0.092901 0.497084 0.136480 
-0.489999 0.131218 3.836389 
0.366242 0.365941 0.674574 
0.360634 0.358875 0.236373 
0.351038 0.348519 1.346292 
0.361848 0.361502 0.892865 
0.357190 0.357188 1.084007 
0.347326 0.347089 1.632475 
0.342373 0.344070 1.909360 
0.356527 0.355540 2.833773 
0.346486 0.346390 2.423237 
0.353449 0.352688 2.659578 
0.341938 0.342810 2.173577 
0.358467 0.357708 2.965945 
0.351246 0.379252 3.350905 
0.364037 0.365100 3.603827 
0.465556 0.205373 3.776755 
0.205185 0.465188 3.778983 
0.485646 0.167587 3.626634 
0.166391 0.486122 3.628944 
0.479854 0.181060 0.343133 
0.182309 0.479407 0.340150 
0.190200 0.457467 1.356468 
0.458868 0.187892 1.354865 
0.183435 0.449552 2.038581 
0.446933 0.184148 2.038184 
0.476609 0.146198 2.622588 
0.146704 0.475538 2.622599 
0.154305 0.484773 3.031960 
0.485406 0.152964 3.031402 
0.191750 0.479437 3.464131 
0.479138 0.194776 3.461922 
0.462924 0.190121 1.211733 
0.191383 0.462630 1.213203 
0.188643 0.453923 1.506449 
0.457236 0.187436 1.507898 
0.464946 0.219843 3.239026 
0.168747 0.487015 3.259965 
[...]
POINT_DATA 507
SCALARS u float 1
LOOKUP_TABLE default
0.007043
0.008244
0.009600
0.009288
0.007064
0.008297
0.009232
0.008853
0.006980
0.007240
0.007689
0.008587
0.009037
0.009348
0.009631
0.009523
0.009602
0.008523
0.007886
0.007465
0.007123
0.007298
0.007686
0.008656
0.008890
0.009212
0.009207
0.009097
0.009244
0.008303
0.007661
0.007255
0.006461
0.005352
0.004070
0.004278
0.006131
0.007957
0.008605
0.007408
0.004738
0.003322
0.005205
0.006901
0.007834
0.008180
0.005928
0.003833
0.003725
0.005259
0.006562
0.008586
0.006197
0.003880
0.004257
0.006662
0.007758
0.007800
0.006415
0.004848
0.004237
0.004881
0.006439
0.007790
0.008124
0.006344
0.004186
0.003780
0.005959
0.008389
0.007497
0.005775
0.004229
0.004221
0.005963
0.008150
0.008880
0.006639
0.004517
0.003943
0.005344
0.006770
0.007909
0.008141
0.005900
0.004138
0.004196
0.006010
0.007625
0.008406
0.006158
0.003902
0.004215
0.006367
0.007986
0.008212
0.006625
0.004599
0.004027
0.005007
0.006565
0.007554
0.007247
0.005915
0.003995
0.003766
0.006280
0.008250
0.003921
0.008182
0.007013
0.005756
0.005836
0.007730
0.004227
0.007757
0.006684
0.007959
0.004581
0.007073
0.003573
0.006604
0.008529
0.008002
0.006617
0.006468
0.007259
0.006805
0.007426
0.007571
0.004173
0.004082
0.007858
0.008047
0.005965
0.006314
0.004735
0.004521
0.003822
0.003923
0.004320
0.004520
0.004654
0.004373
0.006912
0.006813
0.007871
0.008170
0.007196
0.006585
0.004982
0.004997
0.006454
0.006939
0.008144
0.008062
0.005424
0.008752
0.004613
0.005246
0.005176
0.005335
0.004056
0.003936
0.009105
0.008263
0.007274
0.007582
0.009188
0.008449
0.004072
0.007173
0.004015
0.005935
0.006952
0.007499
0.006517
0.004270
0.007110
0.007609
0.006876
0.004026
0.006299
0.003679
0.007022
0.003756
0.008135
0.008457
0.008537
0.008815
0.004648
0.004757
0.004402
0.004393
0.004202
0.004123
0.007765
0.007476
0.006227
0.006467
0.006012
0.006127
0.006088
0.005494
0.003999
0.003907
0.003300
0.003522
0.004964
0.004825
0.006407
0.006635
0.007970
0.007854
0.007007
0.006885
0.005206
0.005092
0.007362
0.007674
0.008705
0.009067
0.005045
0.006324
0.006116
0.005316
0.005230
0.008863
0.009275
0.007331
0.007460
0.007517
0.007984
0.008860
0.009169
0.003800
0.004193
0.006298
0.008218
0.006383
0.005504
0.008180
0.008163
0.003794
0.004493
0.008599
0.006696
0.004333
0.006441
0.005978
0.004526
0.006930
0.006766
0.007657
0.007725
0.005649
0.006988
0.004405
0.004798
0.006368
0.006465
0.004420
0.004342
0.003891
0.003358
0.007951
0.008163
0.004972
0.005302
0.005293
0.005991
0.003927
0.004031
0.007691
0.007779
0.006639
0.007310
0.008357
0.008508
0.007129
0.007693
0.005134
0.005049
0.007597
0.008199
0.003522
0.003840
0.007504
0.007348
0.003782
0.007248
0.003933
0.003666
0.005047
0.005431
0.007634
0.007809
0.004023
0.003686
0.006994
0.008574
0.007605
0.007034
0.008309
0.004177
0.006701
0.009129
0.005389
0.007609
0.006451
0.003750
0.007843
0.007230
0.008110
0.005090
0.006552
0.003923
0.006054
0.007217
0.006697
0.006058
0.005612
0.006398
0.005802
0.008556
0.008924
0.003443
0.003935
0.008053
0.008057
0.006114
0.005998
0.004213
0.004647
0.008660
0.008315
0.007930
0.007485
0.003991
0.003916
0.004700
0.004502
0.004188
0.004291
0.006244
0.006566
0.005147
0.004853
0.007113
0.007117
0.007994
0.007911
0.005228
0.007237
0.004630
0.005136
0.006044
0.005938
0.003632
0.003857
0.005197
0.004970
0.007879
0.006810
0.007711
0.007719
0.007621
0.006915
0.010278
0.009292
0.009821
0.009524
0.009745
0.009025
0.010216
0.010186
0.009019
0.010013
0.009675
0.009197
0.008483
0.008977
0.009667
0.009955
0.008480
0.010098
0.009903
0.009921
0.010193
0.009855
0.009343
0.008117
0.009386
0.010195
0.009633
0.010252
0.008893
0.009639
0.008821
0.010441
0.010092
0.009120
0.009682
0.009163
0.008412
0.010313
0.008177
0.009079
0.010308
0.009920
0.009656
0.009920
0.010174
0.010195
0.010233
0.007974
0.009215
0.009632
0.003923
0.009268
0.008226
0.008901
0.008585
0.006043
0.008251
0.008215
0.007486
0.005557
0.008795
0.006195
0.008639
0.006196
0.008907
0.006271
0.005452
0.003273
0.008781
0.008908
0.004691
0.003981
0.009005
0.003095
0.005470
0.008022
0.008051
0.009666
0.009783
0.009622
0.008032
0.002349
0.003237
0.002324
0.002635
0.005536
0.003001
0.005575
0.005441
0.002585
0.005262
0.005510
0.005441
0.008196
0.003018
0.008348
0.008717
0.009035
0.006361
0.005837
0.003648
0.003358
0.009598
0.007536
0.004830
0.004835
0.002158
0.004925
0.002047
0.002544
0.006358
0.006049
0.005459
0.007944
0.006448
0.006393
0.003362
0.008960
0.008823
0.008765
0.008896
0.009040
0.005945
0.005780
0.005650
0.006102
0.009960
0.005687
0.008471
0.005412
0.005385
0.003011
0.007966
0.003486
0.008221
0.008390
0.009275
0.009972
0.006062
