# vtk DataFile Version 2.0
Unstructured Grid Example
ASCII
DATASET UNSTRUCTURED_GRID
POINTS 507 float
0.000159 0.499044 -0.016106 
0.497976 0.000675 -0.018766 
0.000383 -0.497400 -0.021838 
-0.497170 0.000260 -0.021088 
-0.000010 0.499318 4.016171 
0.497977 0.000586 4.018893 
-0.000066 -0.497879 4.021046 
-0.497530 0.000476 4.020126 
0.190851 0.461519 -0.015980 
0.352358 0.353261 -0.016541 
0.460413 0.191554 -0.017549 
0.460513 -0.189895 -0.019568 
0.352455 -0.351328 -0.020555 
0.191087 -0.459753 -0.021305 
-0.190190 -0.459762 -0.021929 
-0.351438 -0.352153 -0.021671 
-0.459287 -0.190498 -0.021823 
-0.459585 0.191157 -0.019385 
-0.352061 0.352699 -0.017986 
-0.190419 0.460999 -0.017052 
0.190693 0.461396 4.016297 
0.352425 0.353370 4.016682 
0.460244 0.191549 4.017527 
0.460049 -0.190047 4.019699 
0.352311 -0.351942 4.020266 
0.190620 -0.459940 4.020998 
-0.190539 -0.460114 4.021001 
-0.351773 -0.352402 4.020735 
-0.459600 -0.190572 4.021035 
-0.459764 0.191418 4.018899 
-0.352140 0.353014 4.017486 
-0.190616 0.461164 4.016588 
-0.000239 0.495741 0.185825 
-0.000597 0.491963 0.390759 
-0.000311 0.490870 0.598128 
0.000135 0.492111 0.805815 
0.000303 0.494975 1.013114 
0.000800 0.498743 1.218170 
0.000309 0.502421 1.419563 
0.000092 0.504907 1.616247 
-0.000427 0.506664 1.808558 
-0.000524 0.507592 2.000071 
-0.000124 0.507918 2.191083 
0.000456 0.505224 2.385085 
0.000745 0.500992 2.582093 
0.000433 0.498422 2.781330 
-0.000484 0.495569 2.987169 
0.000122 0.492684 3.195146 
-0.000121 0.491593 3.401461 
-0.000092 0.491814 3.608841 
-0.000149 0.495400 3.814312 
0.000036 -0.496041 0.180732 
-0.000406 -0.493776 0.387245 
-0.000347 -0.491883 0.596392 
-0.000175 -0.492006 0.805584 
0.000085 -0.492975 1.013551 
0.000128 -0.496345 1.217394 
0.000343 -0.500596 1.417858 
0.000034 -0.504935 1.613844 
-0.000117 -0.508112 1.807585 
0.000061 -0.509704 1.999745 
0.000016 -0.507815 2.192000 
0.000120 -0.503991 2.385797 
0.000218 -0.499139 2.582174 
0.000230 -0.496342 2.781752 
0.000269 -0.493650 2.986927 
0.000026 -0.492183 3.194445 
-0.000042 -0.492025 3.403375 
-0.000307 -0.493586 3.612049 
-0.000160 -0.495948 3.818787 
0.495472 -0.000430 0.183436 
0.492576 -0.001374 0.389136 
0.490769 -0.001070 0.597258 
0.492197 -0.000230 0.805708 
0.495331 0.000450 1.012833 
0.498408 0.001768 1.218519 
0.501835 0.000494 1.420256 
0.503965 -0.000172 1.614683 
0.506912 -0.000923 1.807647 
0.508947 -0.001189 1.999619 
0.508180 -0.000647 2.190913 
0.504914 0.000604 2.385300 
0.500646 0.001058 2.581922 
0.497590 0.000642 2.781516 
0.495226 -0.000056 2.987354 
0.492490 -0.000505 3.194237 
0.490821 -0.000985 3.402683 
0.492174 -0.000909 3.611293 
0.495157 -0.000257 3.816784 
-0.495507 -0.000918 0.181296 
-0.493093 -0.001469 0.387785 
-0.491747 -0.001144 0.596759 
-0.492093 0.000014 0.805546 
-0.494025 0.001182 1.013256 
-0.497329 0.001505 1.218038 
-0.501153 0.000802 1.418761 
-0.504736 -0.000254 1.614419 
-0.507224 -0.000980 1.807608 
-0.509120 -0.001382 1.999757 
-0.507875 -0.000950 2.191714 
-0.504625 -0.000249 2.385689 
-0.500310 0.001175 2.582736 
-0.498187 0.001287 2.783547 
-0.494533 0.001375 2.987676 
-0.492416 -0.000045 3.194877 
-0.492137 -0.000959 3.403420 
-0.492630 -0.001469 3.612270 
-0.495101 -0.000517 3.818250 
0.345821 -0.348603 0.681025 
0.349230 -0.351995 0.190441 
0.355137 -0.354549 1.493736 
0.348353 -0.348417 0.944514 
0.357783 -0.358244 1.691034 
0.353307 -0.351266 1.228672 
0.359332 -0.360706 1.924064 
0.351334 -0.350450 2.782643 
0.357388 -0.356461 2.379061 
0.353824 -0.352021 2.606306 
0.358902 -0.359780 2.153068 
0.350145 -0.349896 2.922896 
0.359552 -0.335760 3.352005 
0.348037 -0.349517 3.638397 
0.199339 -0.453792 3.825772 
0.453186 -0.200186 3.824477 
0.159692 -0.467853 3.663003 
0.466311 -0.160669 3.662077 
0.172422 -0.463303 0.303029 
0.461129 -0.176537 0.304353 
0.190984 -0.459192 1.219565 
0.460782 -0.189258 1.219959 
0.191715 -0.471918 2.035109 
0.471047 -0.193055 2.034959 
0.149285 -0.476654 2.569839 
0.478635 -0.147677 2.569444 
0.472018 -0.148761 2.994336 
0.148654 -0.470857 2.993970 
0.455741 -0.184437 3.478979 
0.183252 -0.456992 3.479137 
0.209504 -0.445460 3.225257 
0.464167 -0.162304 3.249506 
0.453043 -0.191546 0.540208 
0.187362 -0.454784 0.539758 
0.464214 -0.161038 0.805286 
0.159870 -0.465130 0.804919 
0.459549 -0.183843 1.072714 
0.184895 -0.458478 1.072304 
0.192026 -0.461251 1.366619 
0.463044 -0.190404 1.367273 
0.465601 -0.193171 1.566510 
0.192950 -0.465012 1.565224 
0.179409 -0.475340 1.790531 
0.474366 -0.180266 1.791101 
0.184943 -0.469234 2.381941 
0.470388 -0.183959 2.381026 
0.190146 -0.458038 2.781283 
0.459397 -0.189498 2.781289 
0.343304 -0.353209 0.447251 
0.350632 -0.351041 3.886214 
0.371055 -0.324157 3.136720 
0.277004 -0.408470 3.069630 
0.227993 -0.453277 2.227967 
0.453105 -0.228514 2.227570 
0.092518 -0.500284 1.905917 
0.499504 -0.093481 1.906490 
0.099337 -0.486559 3.922262 
0.486324 -0.099438 3.920265 
0.270916 -0.422444 2.485791 
0.424097 -0.269519 2.485171 
0.187141 -0.460092 0.100440 
0.459503 -0.187889 0.102191 
-0.347806 -0.347804 0.775131 
-0.360060 -0.338779 0.315183 
-0.347421 -0.348143 0.584878 
-0.357878 -0.358437 1.691839 
-0.355300 -0.355079 1.504185 
-0.352283 -0.350829 1.249970 
-0.349197 -0.348010 1.013061 
-0.359264 -0.360532 1.901743 
-0.352279 -0.351133 2.783940 
-0.353833 -0.352534 2.593016 
-0.356209 -0.355442 2.435713 
-0.359081 -0.360263 2.068517 
-0.349556 -0.348867 2.976533 
-0.347791 -0.348131 3.262025 
-0.359811 -0.338606 3.683953 
-0.347851 -0.348403 3.421643 
-0.465466 -0.168839 3.790430 
-0.465542 -0.169120 0.208143 
-0.250071 -0.428256 3.829910 
-0.255833 -0.425091 0.162633 
-0.210886 -0.462468 2.166545 
-0.461964 -0.211961 2.166203 
-0.146497 -0.469728 0.816064 
-0.469730 -0.146150 0.815902 
-0.168220 -0.481050 1.988738 
-0.480327 -0.169572 1.988723 
-0.176597 -0.466637 2.576639 
-0.468009 -0.175394 2.577292 
-0.456780 -0.188205 2.983429 
-0.188918 -0.456071 2.982968 
-0.454295 -0.192826 0.393221 
-0.210951 -0.446518 0.388009 
-0.453818 -0.192481 3.602985 
-0.181300 -0.458805 3.580141 
-0.453891 -0.189312 0.591930 
-0.188560 -0.454354 0.592047 
-0.455590 -0.187015 3.340105 
-0.184388 -0.456082 3.336348 
-0.187759 -0.455380 3.122524 
-0.455486 -0.187907 3.123417 
-0.459564 -0.179420 1.014076 
-0.180764 -0.458556 1.014480 
-0.455584 -0.205216 1.347392 
-0.206364 -0.454767 1.347169 
-0.465740 -0.193335 1.566206 
-0.193236 -0.465801 1.565914 
-0.189448 -0.470763 1.762143 
-0.469845 -0.190395 1.762173 
-0.460940 -0.189543 2.783259 
-0.190614 -0.459630 2.782584 
-0.383731 -0.314380 3.866662 
-0.383597 -0.314559 0.132144 
-0.358379 -0.358924 2.237433 
-0.476673 -0.166941 2.367168 
-0.166823 -0.476074 2.367460 
-0.265348 -0.414812 0.903145 
-0.415362 -0.264665 0.902959 
-0.112867 -0.483709 3.887886 
-0.115558 -0.482897 0.108312 
-0.441662 -0.225083 1.168809 
-0.226640 -0.440277 1.169028 
-0.110543 -0.482664 3.744993 
-0.118375 -0.480715 0.246312 
-0.487697 -0.091531 3.913051 
-0.487582 -0.091665 0.086090 
-0.348120 0.347003 0.705534 
-0.348538 0.346502 0.560815 
-0.338524 0.359022 0.313700 
-0.355098 0.356026 1.483649 
-0.358005 0.357333 1.689315 
-0.348523 0.349294 0.922257 
-0.352388 0.354344 1.276719 
-0.351997 0.353283 2.781364 
-0.359769 0.358345 1.923980 
-0.359757 0.358385 2.152808 
-0.352696 0.354463 2.604383 
-0.356772 0.356917 2.379876 
-0.348956 0.348198 3.161768 
-0.349745 0.350848 2.973763 
-0.339547 0.357480 3.657611 
-0.345787 0.349174 3.473455 
-0.192810 0.456162 3.825698 
-0.168751 0.465278 0.211591 
-0.416658 0.269218 3.862914 
-0.425242 0.254694 0.164568 
-0.152835 0.468769 3.668253 
-0.464562 0.167841 3.720803 
-0.204615 0.446479 3.477087 
-0.444475 0.210276 3.479920 
-0.440117 0.225362 1.015071 
-0.224120 0.441193 1.015485 
-0.181027 0.457831 0.820802 
-0.457884 0.180952 0.820557 
-0.471568 0.190778 2.035010 
-0.192178 0.469762 2.035319 
-0.477725 0.149860 2.569484 
-0.148087 0.478669 2.569003 
-0.454255 0.194908 3.064115 
-0.194177 0.454699 3.063148 
-0.192292 0.453189 0.396371 
-0.447265 0.206827 0.384586 
-0.460074 0.173436 0.594398 
-0.175306 0.458720 0.595330 
-0.456092 0.197360 1.171306 
-0.195272 0.457710 1.171616 
-0.469400 0.183876 2.381521 
-0.184400 0.470791 2.380383 
-0.462302 0.192900 1.364450 
-0.190892 0.463395 1.364803 
-0.465311 0.192966 1.563423 
-0.192568 0.465742 1.564692 
-0.179893 0.473818 1.790896 
-0.474774 0.178331 1.790362 
-0.449953 0.211738 2.821909 
-0.210367 0.451460 2.820382 
-0.455069 0.187630 3.264325 
-0.186848 0.454962 3.263209 
-0.314366 0.383744 0.134708 
-0.314072 0.384249 3.875315 
-0.346983 0.347983 3.329102 
-0.349989 0.351549 1.096221 
-0.090684 0.482846 0.705198 
-0.483521 0.089739 0.704531 
-0.453054 0.227122 2.228019 
-0.228725 0.453059 2.227436 
-0.423147 0.270956 2.484933 
-0.269729 0.424250 2.484589 
-0.499962 0.091203 1.906451 
-0.092847 0.498635 1.906821 
-0.097777 0.487441 3.918408 
-0.482591 0.115024 0.109613 
-0.480372 0.116420 0.246191 
-0.091380 0.488516 0.090725 
-0.479265 0.128358 3.890273 
0.348414 0.345419 0.679656 
0.351393 0.349147 0.194079 
0.354884 0.356217 1.406118 
0.349493 0.349019 0.923925 
0.351629 0.351630 1.133770 
0.356848 0.356974 1.672921 
0.359469 0.358571 1.920035 
0.351980 0.352502 2.782130 
0.357293 0.357344 2.377904 
0.353608 0.354011 2.605898 
0.359699 0.359238 2.150113 
0.350954 0.351355 2.923690 
0.335283 0.358768 3.350537 
0.348007 0.347444 3.636049 
0.453341 0.199563 3.822589 
0.199662 0.453536 3.821409 
0.466374 0.158981 3.660740 
0.159614 0.466122 3.659518 
0.462328 0.171722 0.305711 
0.175189 0.461009 0.307189 
0.191946 0.464307 1.412680 
0.463565 0.193167 1.413528 
0.191330 0.470218 2.033082 
0.471603 0.190953 2.033292 
0.477824 0.149892 2.569411 
0.149624 0.478390 2.569405 
0.147953 0.472768 2.993821 
0.472433 0.148663 2.994116 
0.183713 0.455707 3.476397 
0.455865 0.182112 3.477565 
0.461419 0.191988 1.269024 
0.191320 0.461574 1.268246 
0.192770 0.466181 1.557337 
0.464429 0.193408 1.556570 
0.445778 0.209221 3.224255 
[...]
POINT_DATA 507
SCALARS u float 1
LOOKUP_TABLE default
0.007043
0.008244
0.009600
0.009288
0.007064
0.008297
0.009232
0.008853
0.006980
0.007240
0.007689
0.008587
0.009037
0.009348
0.009631
0.009523
0.009602
0.008523
0.007886
0.007465
0.007123
0.007298
0.007686
0.008656
0.008890
0.009212
0.009207
0.009097
0.009244
0.008303
0.007661
0.007255
0.006461
0.005352
0.004070
0.004278
0.006131
0.007957
0.008605
0.007408
0.004738
0.003322
0.005205
0.006901
0.007834
0.008180
0.005928
0.003833
0.003725
0.005259
0.006562
0.008586
0.006197
0.003880
0.004257
0.006662
0.007758
0.007800
0.006415
0.004848
0.004237
0.004881
0.006439
0.007790
0.008124
0.006344
0.004186
0.003780
0.005959
0.008389
0.007497
0.005775
0.004229
0.004221
0.005963
0.008150
0.008880
0.006639
0.004517
0.003943
0.005344
0.006770
0.007909
0.008141
0.005900
0.004138
0.004196
0.006010
0.007625
0.008406
0.006158
0.003902
0.004215
0.006367
0.007986
0.008212
0.006625
0.004599
0.004027
0.005007
0.006565
0.007554
0.007247
0.005915
0.003995
0.003766
0.006280
0.008250
0.003921
0.008182
0.007013
0.005756
0.005836
0.007730
0.004227
0.007757
0.006684
0.007959
0.004581
0.007073
0.003573
0.006604
0.008529
0.008002
0.006617
0.006468
0.007259
0.006805
0.007426
0.007571
0.004173
0.004082
0.007858
0.008047
0.005965
0.006314
0.004735
0.004521
0.003822
0.003923
0.004320
0.004520
0.004654
0.004373
0.006912
0.006813
0.007871
0.008170
0.007196
0.006585
0.004982
0.004997
0.006454
0.006939
0.008144
0.008062
0.005424
0.008752
0.004613
0.005246
0.005176
0.005335
0.004056
0.003936
0.009105
0.008263
0.007274
0.007582
0.009188
0.008449
0.004072
0.007173
0.004015
0.005935
0.006952
0.007499
0.006517
0.004270
0.007110
0.007609
0.006876
0.004026
0.006299
0.003679
0.007022
0.003756
0.008135
0.008457
0.008537
0.008815
0.004648
0.004757
0.004402
0.004393
0.004202
0.004123
0.007765
0.007476
0.006227
0.006467
0.006012
0.006127
0.006088
0.005494
0.003999
0.003907
0.003300
0.003522
0.004964
0.004825
0.006407
0.006635
0.007970
0.007854
0.007007
0.006885
0.005206
0.005092
0.007362
0.007674
0.008705
0.009067
0.005045
0.006324
0.006116
0.005316
0.005230
0.008863
0.009275
0.007331
0.007460
0.007517
0.007984
0.008860
0.009169
0.003800
0.004193
0.006298
0.008218
0.006383
0.005504
0.008180
0.008163
0.003794
0.004493
0.008599
0.006696
0.004333
0.006441
0.005978
0.004526
0.006930
0.006766
0.007657
0.007725
0.005649
0.006988
0.004405
0.004798
0.006368
0.006465
0.004420
0.004342
0.003891
0.003358
0.007951
0.008163
0.004972
0.005302
0.005293
0.005991
0.003927
0.004031
0.007691
0.007779
0.006639
0.007310
0.008357
0.008508
0.007129
0.007693
0.005134
0.005049
0.007597
0.008199
0.003522
0.003840
0.007504
0.007348
0.003782
0.007248
0.003933
0.003666
0.005047
0.005431
0.007634
0.007809
0.004023
0.003686
0.006994
0.008574
0.007605
0.007034
0.008309
0.004177
0.006701
0.009129
0.005389
0.007609
0.006451
0.003750
0.007843
0.007230
0.008110
0.005090
0.006552
0.003923
0.006054
0.007217
0.006697
0.006058
0.005612
0.006398
0.005802
0.008556
0.008924
0.003443
0.003935
0.008053
0.008057
0.006114
0.005998
0.004213
0.004647
0.008660
0.008315
0.007930
0.007485
0.003991
0.003916
0.004700
0.004502
0.004188
0.004291
0.006244
0.006566
0.005147
0.004853
0.007113
0.007117
0.007994
0.007911
0.005228
0.007237
0.004630
0.005136
0.006044
0.005938
0.003632
0.003857
0.005197
0.004970
0.007879
0.006810
0.007711
0.007719
0.007621
0.006915
0.010278
0.009292
0.009821
0.009524
0.009745
0.009025
0.010216
0.010186
0.009019
0.010013
0.009675
0.009197
0.008483
0.008977
0.009667
0.009955
0.008480
0.010098
0.009903
0.009921
0.010193
0.009855
0.009343
0.008117
0.009386
0.010195
0.009633
0.010252
0.008893
0.009639
0.008821
0.010441
0.010092
0.009120
0.009682
0.009163
0.008412
0.010313
0.008177
0.009079
0.010308
0.009920
0.009656
0.009920
0.010174
0.010195
0.010233
0.007974
0.009215
0.009632
0.003923
0.009268
0.008226
0.008901
0.008585
0.006043
0.008251
0.008215
0.007486
0.005557
0.008795
0.006195
0.008639
0.006196
0.008907
0.006271
0.005452
0.003273
0.008781
0.008908
0.004691
0.003981
0.009005
0.003095
0.005470
0.008022
0.008051
0.009666
0.009783
0.009622
0.008032
0.002349
0.003237
0.002324
0.002635
0.005536
0.003001
0.005575
0.005441
0.002585
0.005262
0.005510
0.005441
0.008196
0.003018
0.008348
0.008717
0.009035
0.006361
0.005837
0.003648
0.003358
0.009598
0.007536
0.004830
0.004835
0.002158
0.004925
0.002047
0.002544
0.006358
0.006049
0.005459
0.007944
0.006448
0.006393
0.003362
0.008960
0.008823
0.008765
0.008896
0.009040
0.005945
0.005780
0.005650
0.006102
0.009960
0.005687
0.008471
0.005412
0.005385
0.003011
0.007966
0.003486
0.008221
0.008390
0.009275
0.009972
0.006062
