# vtk DataFile Version 2.0
Unstructured Grid Example
ASCII
DATASET UNSTRUCTURED_GRID
POINTS 507 float
-0.000338 0.502027 0.034159 
0.504293 -0.001432 0.039799 
-0.000813 -0.505514 0.046315 
-0.506002 -0.000552 0.044724 
0.000020 0.501446 3.965705 
0.504291 -0.001243 3.959931 
0.000140 -0.504498 3.955366 
-0.505237 -0.001009 3.957316 
0.192383 0.462832 0.033890 
0.356089 0.354173 0.035081 
0.465177 0.190892 0.037218 
0.464966 -0.194409 0.041500 
0.355883 -0.358272 0.043594 
0.191881 -0.466578 0.045183 
-0.193784 -0.466558 0.046507 
-0.358040 -0.356523 0.045961 
-0.467566 -0.193131 0.046283 
-0.466934 0.191734 0.041112 
-0.356719 0.355364 0.038145 
-0.193298 0.463935 0.036164 
0.192717 0.463093 3.965438 
0.355946 0.353943 3.964621 
0.465537 0.190902 3.962828 
0.465950 -0.194087 3.958223 
0.356188 -0.356971 3.957020 
0.192872 -0.466181 3.955466 
-0.193043 -0.465812 3.955462 
-0.357329 -0.355994 3.956025 
-0.466902 -0.192974 3.955389 
-0.466555 0.191181 3.959919 
-0.356551 0.354697 3.962915 
-0.192881 0.463584 3.964821 
0.000507 0.509032 0.230063 
0.001266 0.517045 0.419598 
0.000660 0.519363 0.603970 
-0.000286 0.516730 0.787667 
-0.000642 0.510656 0.972188 
-0.001696 0.502666 1.161466 
-0.000656 0.494865 1.358510 
-0.000195 0.489593 1.565542 
0.000906 0.485867 1.781850 
0.001111 0.483899 1.999850 
0.000264 0.483208 2.218912 
-0.000968 0.488920 2.431632 
-0.001579 0.497897 2.637976 
-0.000918 0.503347 2.839595 
0.001026 0.509397 3.027211 
-0.000258 0.515517 3.210294 
0.000257 0.517830 3.396901 
0.000196 0.517361 3.581250 
0.000315 0.509755 3.769647 
-0.000076 -0.508397 0.240865 
0.000860 -0.513201 0.427050 
0.000735 -0.517214 0.607652 
0.000372 -0.516954 0.788158 
-0.000181 -0.514898 0.971260 
-0.000273 -0.507752 1.163110 
-0.000727 -0.498735 1.362127 
-0.000072 -0.489535 1.570640 
0.000249 -0.482797 1.783913 
-0.000130 -0.479420 2.000541 
-0.000035 -0.483426 2.216966 
-0.000255 -0.491536 2.430122 
-0.000463 -0.501826 2.637805 
-0.000489 -0.507759 2.838701 
-0.000570 -0.513467 3.027725 
-0.000054 -0.516578 3.211781 
0.000088 -0.516914 3.392843 
0.000651 -0.513603 3.574447 
0.000338 -0.508594 3.760157 
0.509603 0.000912 0.235130 
0.515745 0.002913 0.423041 
0.519577 0.002269 0.605815 
0.516549 0.000487 0.787894 
0.509901 -0.000953 0.972784 
0.503376 -0.003749 1.160724 
0.496109 -0.001048 1.357042 
0.491590 0.000365 1.568859 
0.485342 0.001958 1.783783 
0.481024 0.002523 2.000808 
0.482652 0.001373 2.219272 
0.489577 -0.001281 2.431176 
0.498630 -0.002244 2.638340 
0.505112 -0.001361 2.839200 
0.510126 0.000118 3.026821 
0.515927 0.001070 3.212223 
0.519466 0.002089 3.394310 
0.516597 0.001928 3.576049 
0.510271 0.000545 3.764404 
-0.509528 0.001946 0.239668 
-0.514649 0.003115 0.425905 
-0.517503 0.002427 0.606874 
-0.516769 -0.000029 0.788238 
-0.512671 -0.002508 0.971886 
-0.505666 -0.003193 1.161746 
-0.497555 -0.001701 1.360211 
-0.489956 0.000538 1.569420 
-0.484680 0.002079 1.783865 
-0.480659 0.002932 2.000514 
-0.483299 0.002015 2.217573 
-0.490191 0.000528 2.430352 
-0.499342 -0.002492 2.636614 
-0.503845 -0.002730 2.834894 
-0.511595 -0.002916 3.026137 
-0.516084 0.000095 3.210865 
-0.516675 0.002034 3.392747 
-0.515629 0.003115 3.573978 
-0.510389 0.001095 3.761296 
0.366728 -0.367267 0.680295 
0.359476 -0.360095 0.247466 
0.350195 -0.351441 1.443934 
0.363911 -0.365119 0.910267 
0.344583 -0.343606 1.654256 
0.354075 -0.358404 1.173867 
0.341297 -0.338383 1.914584 
0.358261 -0.360135 2.836811 
0.345421 -0.347387 2.424430 
0.352979 -0.356804 2.663004 
0.342210 -0.340349 2.173481 
0.360782 -0.361309 2.971004 
0.379227 -0.351509 3.347823 
0.365252 -0.362114 3.596272 
0.206310 -0.465576 3.766342 
0.466862 -0.204514 3.769087 
0.166767 -0.484048 3.619112 
0.487319 -0.164694 3.621075 
0.180322 -0.479185 0.351810 
0.480622 -0.180018 0.348798 
0.192100 -0.467766 1.167175 
0.464395 -0.195762 1.166339 
0.181988 -0.444295 2.040818 
0.446141 -0.179146 2.041136 
0.147190 -0.478993 2.625940 
0.474792 -0.150600 2.626778 
0.487323 -0.153098 3.033913 
0.153324 -0.489785 3.034690 
0.481260 -0.190856 3.457674 
0.193370 -0.478607 3.457338 
0.220091 -0.467150 3.238082 
0.489253 -0.168796 3.260253 
0.477923 -0.197825 0.557403 
0.199468 -0.477246 0.559586 
0.490046 -0.168906 0.785841 
0.168741 -0.489016 0.786801 
0.472796 -0.193079 1.026006 
0.190122 -0.475359 1.026907 
0.189890 -0.463401 1.310419 
0.459598 -0.193331 1.309033 
0.454176 -0.187463 1.516670 
0.187930 -0.455424 1.519398 
0.171306 -0.451477 1.765351 
0.453543 -0.169488 1.764140 
0.178760 -0.457027 2.426012 
0.454579 -0.180848 2.427953 
0.193877 -0.470214 2.838105 
0.467332 -0.195252 2.838091 
0.362130 -0.367289 0.478093 
0.359748 -0.358881 3.824799 
0.388868 -0.338364 3.160571 
0.288328 -0.425160 3.101259 
0.218195 -0.432402 2.256912 
0.432766 -0.217090 2.257755 
0.087635 -0.473364 1.896301 
0.475018 -0.085592 1.895085 
0.102255 -0.496806 3.858035 
0.497303 -0.102040 3.862271 
0.265331 -0.419161 2.537397 
0.415656 -0.268294 2.538712 
0.191069 -0.469628 0.165319 
0.469732 -0.192287 0.161571 
-0.365742 -0.365748 0.760849 
-0.374142 -0.349393 0.363342 
-0.366559 -0.365029 0.598018 
-0.344381 -0.343196 1.654605 
-0.349849 -0.350319 1.455005 
-0.356248 -0.359332 1.197181 
-0.362792 -0.365309 0.971985 
-0.341443 -0.338753 1.889897 
-0.356255 -0.358686 2.834060 
-0.352960 -0.355715 2.647320 
-0.347921 -0.349548 2.483812 
-0.341831 -0.339324 2.078153 
-0.362031 -0.363492 3.017261 
-0.365774 -0.365053 3.271093 
-0.374670 -0.349759 3.637312 
-0.365647 -0.364477 3.409553 
-0.480386 -0.172167 3.734306 
-0.480204 -0.171632 0.266754 
-0.257960 -0.438386 3.770231 
-0.263308 -0.434659 0.224484 
-0.200774 -0.438675 2.187429 
-0.439743 -0.198495 2.188153 
-0.153280 -0.493627 0.796740 
-0.493621 -0.154016 0.797083 
-0.159539 -0.452298 1.987844 
-0.453831 -0.156673 1.987876 
-0.176057 -0.470392 2.632028 
-0.467482 -0.178610 2.630644 
-0.472882 -0.197994 3.023767 
-0.196482 -0.474387 3.024743 
-0.474355 -0.197280 0.430980 
-0.219610 -0.463686 0.427372 
-0.475366 -0.198012 3.565572 
-0.189122 -0.478105 3.546829 
-0.478539 -0.196784 0.604358 
-0.198379 -0.477556 0.604109 
-0.477935 -0.194373 3.338290 
-0.194509 -0.479105 3.335060 
-0.197012 -0.476649 3.149394 
-0.476050 -0.197604 3.149365 
-0.477520 -0.190511 0.973414 
-0.187661 -0.479657 0.972556 
-0.454769 -0.209513 1.290570 
-0.207080 -0.456502 1.291044 
-0.453880 -0.187114 1.517931 
-0.187325 -0.453751 1.518551 
-0.182005 -0.448686 1.733112 
-0.450633 -0.179998 1.733048 
-0.464061 -0.195157 2.835505 
-0.192885 -0.466839 2.836935 
-0.394362 -0.320760 3.805669 
-0.394364 -0.320727 0.195773 
-0.343320 -0.342164 2.265608 
-0.461650 -0.162052 2.409537 
-0.162301 -0.462922 2.408918 
-0.277181 -0.435320 0.873406 
-0.434153 -0.278628 0.873801 
-0.115585 -0.493641 3.825359 
-0.118853 -0.493240 0.173738 
-0.451489 -0.235276 1.118339 
-0.231973 -0.454428 1.117876 
-0.113868 -0.497396 3.693410 
-0.122241 -0.495591 0.301295 
-0.499508 -0.092687 3.850823 
-0.499748 -0.092419 0.150506 
-0.365078 0.367447 0.699822 
-0.364189 0.368508 0.573839 
-0.349934 0.376344 0.353670 
-0.350278 0.348310 1.425594 
-0.344113 0.345537 1.647471 
-0.364222 0.362587 0.888708 
-0.356025 0.351877 1.218394 
-0.356853 0.354127 2.839522 
-0.340371 0.343391 1.912321 
-0.340397 0.343306 2.173542 
-0.355371 0.351623 2.665741 
-0.346728 0.346420 2.425493 
-0.363303 0.364910 3.183557 
-0.361631 0.359292 3.017445 
-0.353071 0.374608 3.620855 
-0.362553 0.370262 3.455521 
-0.197794 0.470194 3.778438 
-0.172415 0.480763 0.257279 
-0.426790 0.276155 3.809560 
-0.435663 0.263522 0.218089 
-0.158931 0.489578 3.634175 
-0.481253 0.177185 3.674645 
-0.214399 0.472436 3.462176 
-0.466310 0.224642 3.457695 
-0.456926 0.230459 0.973061 
-0.233093 0.454645 0.972184 
-0.189117 0.480403 0.800218 
-0.480290 0.189276 0.800738 
-0.445036 0.183974 2.039879 
-0.181005 0.448868 2.039224 
-0.476722 0.145971 2.626195 
-0.149731 0.474720 2.627215 
-0.471541 0.199697 3.094811 
-0.200282 0.471011 3.096817 
-0.198412 0.476701 0.425389 
-0.465449 0.221232 0.420597 
-0.482868 0.186576 0.604201 
-0.182610 0.485738 0.602226 
-0.466401 0.197396 1.117288 
-0.201826 0.462971 1.116631 
-0.456675 0.181024 2.427168 
-0.179912 0.453724 2.429582 
-0.461171 0.188037 1.304908 
-0.192297 0.458854 1.304158 
-0.454790 0.187897 1.513806 
-0.188742 0.453875 1.511115 
-0.170278 0.454704 1.761072 
-0.452678 0.173592 1.762205 
-0.459243 0.211899 2.875430 
-0.214671 0.456110 2.878662 
-0.476948 0.198162 3.271002 
-0.194097 0.479525 3.273108 
-0.321137 0.394052 0.186926 
-0.321175 0.393458 3.824079 
-0.363302 0.369538 3.329575 
-0.361112 0.357805 1.045989 
-0.094427 0.509808 0.698141 
-0.508374 0.096429 0.699555 
-0.432876 0.220044 2.257085 
-0.216643 0.432864 2.258322 
-0.417670 0.265244 2.538942 
-0.267848 0.415330 2.539672 
-0.474047 0.090425 1.893985 
-0.086938 0.476860 1.893200 
-0.099595 0.496144 3.869194 
-0.494102 0.119098 0.169691 
-0.496793 0.124456 0.297399 
-0.093022 0.497768 0.140135 
-0.490857 0.131447 3.832085 
0.367667 0.367580 0.674169 
0.361372 0.359652 0.239751 
0.350731 0.347904 1.341512 
0.362835 0.362500 0.890384 
0.357634 0.357632 1.080032 
0.346566 0.346299 1.629244 
0.341007 0.342912 1.908507 
0.356890 0.355783 2.837899 
0.345623 0.345514 2.426859 
0.353437 0.352582 2.663866 
0.340519 0.341498 2.175451 
0.359067 0.358215 2.969321 
0.352522 0.380889 3.350935 
0.365317 0.366511 3.601253 
0.466532 0.205837 3.773093 
0.205626 0.466119 3.775594 
0.487186 0.168274 3.623910 
0.166932 0.487720 3.626501 
0.481254 0.181806 0.346122 
0.182878 0.480877 0.342783 
0.190061 0.456920 1.351977 
0.458492 0.187471 1.350179 
0.182804 0.447901 2.039021 
0.444962 0.183604 2.038574 
0.476512 0.145903 2.626835 
0.146471 0.475310 2.626848 
0.154813 0.485732 3.035006 
0.486442 0.153307 3.034381 
0.192392 0.481332 3.463151 
0.480997 0.195788 3.460672 
0.463045 0.189972 1.207156 
0.191388 0.462715 1.208806 
0.188313 0.452944 1.502383 
0.456661 0.186959 1.504010 
0.466477 0.220692 3.240206 
0.169280 0.488824 3.260822 
[...]
POINT_DATA 507
SCALARS u float 1
LOOKUP_TABLE default
0.007043
0.008244
0.009600
0.009288
0.007064
0.008297
0.009232
0.008853
0.006980
0.007240
0.007689
0.008587
0.009037
0.009348
0.009631
0.009523
0.009602
0.008523
0.007886
0.007465
0.007123
0.007298
0.007686
0.008656
0.008890
0.009212
0.009207
0.009097
0.009244
0.008303
0.007661
0.007255
0.006461
0.005352
0.004070
0.004278
0.006131
0.007957
0.008605
0.007408
0.004738
0.003322
0.005205
0.006901
0.007834
0.008180
0.005928
0.003833
0.003725
0.005259
0.006562
0.008586
0.006197
0.003880
0.004257
0.006662
0.007758
0.007800
0.006415
0.004848
0.004237
0.004881
0.006439
0.007790
0.008124
0.006344
0.004186
0.003780
0.005959
0.008389
0.007497
0.005775
0.004229
0.004221
0.005963
0.008150
0.008880
0.006639
0.004517
0.003943
0.005344
0.006770
0.007909
0.008141
0.005900
0.004138
0.004196
0.006010
0.007625
0.008406
0.006158
0.003902
0.004215
0.006367
0.007986
0.008212
0.006625
0.004599
0.004027
0.005007
0.006565
0.007554
0.007247
0.005915
0.003995
0.003766
0.006280
0.008250
0.003921
0.008182
0.007013
0.005756
0.005836
0.007730
0.004227
0.007757
0.006684
0.007959
0.004581
0.007073
0.003573
0.006604
0.008529
0.008002
0.006617
0.006468
0.007259
0.006805
0.007426
0.007571
0.004173
0.004082
0.007858
0.008047
0.005965
0.006314
0.004735
0.004521
0.003822
0.003923
0.004320
0.004520
0.004654
0.004373
0.006912
0.006813
0.007871
0.008170
0.007196
0.006585
0.004982
0.004997
0.006454
0.006939
0.008144
0.008062
0.005424
0.008752
0.004613
0.005246
0.005176
0.005335
0.004056
0.003936
0.009105
0.008263
0.007274
0.007582
0.009188
0.008449
0.004072
0.007173
0.004015
0.005935
0.006952
0.007499
0.006517
0.004270
0.007110
0.007609
0.006876
0.004026
0.006299
0.003679
0.007022
0.003756
0.008135
0.008457
0.008537
0.008815
0.004648
0.004757
0.004402
0.004393
0.004202
0.004123
0.007765
0.007476
0.006227
0.006467
0.006012
0.006127
0.006088
0.005494
0.003999
0.003907
0.003300
0.003522
0.004964
0.004825
0.006407
0.006635
0.007970
0.007854
0.007007
0.006885
0.005206
0.005092
0.007362
0.007674
0.008705
0.009067
0.005045
0.006324
0.006116
0.005316
0.005230
0.008863
0.009275
0.007331
0.007460
0.007517
0.007984
0.008860
0.009169
0.003800
0.004193
0.006298
0.008218
0.006383
0.005504
0.008180
0.008163
0.003794
0.004493
0.008599
0.006696
0.004333
0.006441
0.005978
0.004526
0.006930
0.006766
0.007657
0.007725
0.005649
0.006988
0.004405
0.004798
0.006368
0.006465
0.004420
0.004342
0.003891
0.003358
0.007951
0.008163
0.004972
0.005302
0.005293
0.005991
0.003927
0.004031
0.007691
0.007779
0.006639
0.007310
0.008357
0.008508
0.007129
0.007693
0.005134
0.005049
0.007597
0.008199
0.003522
0.003840
0.007504
0.007348
0.003782
0.007248
0.003933
0.003666
0.005047
0.005431
0.007634
0.007809
0.004023
0.003686
0.006994
0.008574
0.007605
0.007034
0.008309
0.004177
0.006701
0.009129
0.005389
0.007609
0.006451
0.003750
0.007843
0.007230
0.008110
0.005090
0.006552
0.003923
0.006054
0.007217
0.006697
0.006058
0.005612
0.006398
0.005802
0.008556
0.008924
0.003443
0.003935
0.008053
0.008057
0.006114
0.005998
0.004213
0.004647
0.008660
0.008315
0.007930
0.007485
0.003991
0.003916
0.004700
0.004502
0.004188
0.004291
0.006244
0.006566
0.005147
0.004853
0.007113
0.007117
0.007994
0.007911
0.005228
0.007237
0.004630
0.005136
0.006044
0.005938
0.003632
0.003857
0.005197
0.004970
0.007879
0.006810
0.007711
0.007719
0.007621
0.006915
0.010278
0.009292
0.009821
0.009524
0.009745
0.009025
0.010216
0.010186
0.009019
0.010013
0.009675
0.009197
0.008483
0.008977
0.009667
0.009955
0.008480
0.010098
0.009903
0.009921
0.010193
0.009855
0.009343
0.008117
0.009386
0.010195
0.009633
0.010252
0.008893
0.009639
0.008821
0.010441
0.010092
0.009120
0.009682
0.009163
0.008412
0.010313
0.008177
0.009079
0.010308
0.009920
0.009656
0.009920
0.010174
0.010195
0.010233
0.007974
0.009215
0.009632
0.003923
0.009268
0.008226
0.008901
0.008585
0.006043
0.008251
0.008215
0.007486
0.005557
0.008795
0.006195
0.008639
0.006196
0.008907
0.006271
0.005452
0.003273
0.008781
0.008908
0.004691
0.003981
0.009005
0.003095
0.005470
0.008022
0.008051
0.009666
0.009783
0.009622
0.008032
0.002349
0.003237
0.002324
0.002635
0.005536
0.003001
0.005575
0.005441
0.002585
0.005262
0.005510
0.005441
0.008196
0.003018
0.008348
0.008717
0.009035
0.006361
0.005837
0.003648
0.003358
0.009598
0.007536
0.004830
0.004835
0.002158
0.004925
0.002047
0.002544
0.006358
0.006049
0.005459
0.007944
0.006448
0.006393
0.003362
0.008960
0.008823
0.008765
0.008896
0.009040
0.005945
0.005780
0.005650
0.006102
0.009960
0.005687
0.008471
0.005412
0.005385
0.003011
0.007966
0.003486
0.008221
0.008390
0.009275
0.009972
0.006062
