# vtk DataFile Version 2.0
Unstructured Grid Example
ASCII
DATASET UNSTRUCTURED_GRID
POINTS 507 float
-0.000033 0.500198 0.003341 
0.500420 -0.000140 0.003893 
-0.000079 -0.500539 0.004530 
-0.500587 -0.000054 0.004375 
0.000002 0.500141 3.996645 
0.500420 -0.000122 3.996081 
0.000014 -0.500440 3.995634 
-0.500512 -0.000099 3.995825 
0.191444 0.462027 0.003315 
0.353801 0.353614 0.003431 
0.462256 0.191298 0.003640 
0.462236 -0.191642 0.004059 
0.353781 -0.354015 0.004264 
0.191394 -0.462393 0.004419 
-0.191581 -0.462391 0.004549 
-0.353992 -0.353844 0.004496 
-0.462490 -0.191517 0.004527 
-0.462428 0.191380 0.004021 
-0.353863 0.353731 0.003731 
-0.191533 0.462135 0.003537 
0.191476 0.462053 3.996619 
0.353787 0.353591 3.996539 
0.462292 0.191299 3.996364 
0.462332 -0.191610 3.995914 
0.353811 -0.353888 3.995796 
0.191491 -0.462355 3.995644 
-0.191508 -0.462319 3.995644 
-0.353923 -0.353792 3.995699 
-0.462425 -0.191501 3.995636 
-0.462391 0.191326 3.996080 
-0.353847 0.353665 3.996373 
-0.191492 0.462101 3.996559 
0.000050 0.500883 0.202941 
0.000124 0.501667 0.401917 
0.000065 0.501894 0.600388 
-0.000028 0.501636 0.798794 
-0.000063 0.501042 0.997280 
-0.000166 0.500261 1.196231 
-0.000064 0.499498 1.395942 
-0.000019 0.498982 1.596630 
0.000089 0.498618 1.798225 
0.000109 0.498425 1.999985 
0.000026 0.498358 2.201850 
-0.000095 0.498916 2.403094 
-0.000154 0.499794 2.603715 
-0.000090 0.500327 2.803873 
0.000100 0.500919 3.002662 
-0.000025 0.501518 3.201007 
0.000025 0.501744 3.399697 
0.000019 0.501698 3.598166 
0.000031 0.500954 3.797031 
-0.000007 -0.500821 0.203997 
0.000084 -0.501291 0.402646 
0.000072 -0.501684 0.600748 
0.000036 -0.501658 0.798842 
-0.000018 -0.501457 0.997189 
-0.000027 -0.500758 1.196392 
-0.000071 -0.499876 1.396296 
-0.000007 -0.498976 1.597128 
0.000024 -0.498317 1.798426 
-0.000013 -0.497987 2.000053 
-0.000003 -0.498379 2.201659 
-0.000025 -0.499172 2.402946 
-0.000045 -0.500179 2.603698 
-0.000048 -0.500759 2.803786 
-0.000056 -0.501317 3.002712 
-0.000005 -0.501622 3.201152 
0.000009 -0.501654 3.399300 
0.000064 -0.501331 3.597501 
0.000033 -0.500841 3.796103 
0.500939 0.000089 0.203436 
0.501540 0.000285 0.402254 
0.501915 0.000222 0.600569 
0.501619 0.000048 0.798816 
0.500968 -0.000093 0.997338 
0.500330 -0.000367 1.196158 
0.499619 -0.000103 1.395798 
0.499177 0.000036 1.596954 
0.498566 0.000191 1.798414 
0.498144 0.000247 2.000079 
0.498303 0.000134 2.201885 
0.498981 -0.000125 2.403049 
0.499866 -0.000220 2.603750 
0.500500 -0.000133 2.803834 
0.500990 0.000012 3.002623 
0.501558 0.000105 3.201196 
0.501904 0.000204 3.399443 
0.501623 0.000189 3.597657 
0.501005 0.000053 3.796518 
-0.500932 0.000190 0.203880 
-0.501433 0.000305 0.402534 
-0.501712 0.000237 0.600672 
-0.501640 -0.000003 0.798850 
-0.501239 -0.000245 0.997250 
-0.500554 -0.000312 1.196258 
-0.499761 -0.000166 1.396108 
-0.499018 0.000053 1.597009 
-0.498501 0.000203 1.798422 
-0.498108 0.000287 2.000050 
-0.498366 0.000197 2.201719 
-0.499041 0.000052 2.402969 
-0.499936 -0.000244 2.603581 
-0.500376 -0.000267 2.803413 
-0.501134 -0.000285 3.002557 
-0.501573 0.000009 3.201063 
-0.501631 0.000199 3.399291 
-0.501529 0.000305 3.597455 
-0.501016 0.000107 3.796214 
0.353910 -0.355824 0.680743 
0.353194 -0.355129 0.212504 
0.353225 -0.353347 1.474467 
0.354372 -0.354879 0.931264 
0.352676 -0.352580 1.676805 
0.353604 -0.354028 1.207468 
0.352355 -0.352070 1.920396 
0.354014 -0.354197 2.803601 
0.352758 -0.352950 2.396615 
0.353497 -0.353871 2.628243 
0.352444 -0.352262 2.160966 
0.354260 -0.354312 2.941509 
0.367164 -0.341853 3.350387 
0.354698 -0.354391 3.622099 
0.202036 -0.458351 3.802778 
0.458477 -0.201861 3.803047 
0.162429 -0.474119 3.646021 
0.474439 -0.162226 3.646213 
0.175479 -0.469448 0.321902 
0.468671 -0.177884 0.321548 
0.191416 -0.462510 1.199295 
0.462180 -0.191774 1.199214 
0.187952 -0.461231 2.037318 
0.461411 -0.187674 2.037349 
0.148474 -0.477559 2.591545 
0.477148 -0.148808 2.591627 
0.477939 -0.150439 3.009649 
0.150461 -0.478180 3.009725 
0.465614 -0.186921 3.470736 
0.187166 -0.465355 3.470703 
0.213600 -0.453852 3.230219 
0.473873 -0.164816 3.253664 
0.462669 -0.193975 0.546861 
0.192046 -0.463475 0.547429 
0.474209 -0.164083 0.797763 
0.163302 -0.474372 0.797909 
0.464674 -0.187417 1.054643 
0.186918 -0.465010 1.054740 
0.191200 -0.462083 1.344875 
0.461711 -0.191536 1.344740 
0.461180 -0.190962 1.547227 
0.191008 -0.461302 1.547494 
0.176274 -0.466107 1.780789 
0.466310 -0.176096 1.780670 
0.182551 -0.464511 2.398992 
0.464272 -0.182755 2.399182 
0.191590 -0.462749 2.803267 
0.462467 -0.191724 2.803266 
0.350588 -0.358657 0.459184 
0.354159 -0.354075 3.862453 
0.377947 -0.329654 3.145948 
0.281385 -0.414928 3.081867 
0.224202 -0.445200 2.239166 
0.445236 -0.224094 2.239248 
0.090629 -0.489868 1.902197 
0.490030 -0.090429 1.902078 
0.100466 -0.490524 3.897413 
0.490572 -0.100445 3.897827 
0.268755 -0.421174 2.505757 
0.420831 -0.269045 2.505886 
0.188661 -0.463781 0.125542 
0.463461 -0.189590 0.125165 
-0.354746 -0.354746 0.769605 
-0.365508 -0.342885 0.333816 
-0.354825 -0.354676 0.589962 
-0.352656 -0.352540 1.677433 
-0.353191 -0.353237 1.485157 
-0.353817 -0.354119 1.229546 
-0.354457 -0.354703 0.997169 
-0.352369 -0.352106 1.897159 
-0.353818 -0.354055 2.803332 
-0.353495 -0.353765 2.614026 
-0.353002 -0.353162 2.454322 
-0.352407 -0.352162 2.072245 
-0.354383 -0.354525 2.992291 
-0.354749 -0.354678 3.265533 
-0.365560 -0.342921 3.665908 
-0.354736 -0.354622 3.416965 
-0.471239 -0.170127 3.768715 
-0.471215 -0.170092 0.230820 
-0.253123 -0.432175 3.806820 
-0.258725 -0.428793 0.186563 
-0.206974 -0.453262 2.174625 
-0.453367 -0.206751 2.174696 
-0.149121 -0.478974 0.808588 
-0.478974 -0.149193 0.808621 
-0.164862 -0.469926 1.988392 
-0.470076 -0.164581 1.988396 
-0.176388 -0.468090 2.598069 
-0.467805 -0.176638 2.597934 
-0.463010 -0.191992 2.999035 
-0.191845 -0.463157 2.999131 
-0.462056 -0.194549 0.407830 
-0.214301 -0.453161 0.403239 
-0.462155 -0.194621 3.588510 
-0.184327 -0.466272 3.567253 
-0.463427 -0.192203 0.596738 
-0.192359 -0.463331 0.596714 
-0.464236 -0.189862 3.339403 
-0.188304 -0.464990 3.335850 
-0.191339 -0.463609 3.132920 
-0.463442 -0.191658 3.133457 
-0.466511 -0.183711 0.998344 
-0.183432 -0.466720 0.998260 
-0.455269 -0.206879 1.325408 
-0.206641 -0.455439 1.325454 
-0.461151 -0.190928 1.547529 
-0.190949 -0.461139 1.547589 
-0.186568 -0.462221 1.750911 
-0.462412 -0.186372 1.750905 
-0.462147 -0.191715 2.803473 
-0.191493 -0.462419 2.803613 
-0.387844 -0.316849 3.843064 
-0.387762 -0.316946 0.156762 
-0.352552 -0.352439 2.248334 
-0.470861 -0.165049 2.383561 
-0.165073 -0.470985 2.383500 
-0.269926 -0.422747 0.891639 
-0.422632 -0.270068 0.891678 
-0.113919 -0.487552 3.863694 
-0.116833 -0.486899 0.133625 
-0.445464 -0.229026 1.149282 
-0.228703 -0.445752 1.149237 
-0.111830 -0.488364 3.725036 
-0.119871 -0.486471 0.267585 
-0.492267 -0.091978 3.888975 
-0.492289 -0.091957 0.111013 
-0.354681 0.354912 0.703324 
-0.354594 0.355016 0.565854 
-0.342938 0.365724 0.329164 
-0.353233 0.353040 1.461187 
-0.352630 0.352769 1.673126 
-0.354597 0.354437 0.909277 
-0.353795 0.353389 1.254153 
-0.353876 0.353610 2.803866 
-0.352264 0.352559 1.919469 
-0.352267 0.352551 2.160830 
-0.353731 0.353365 2.628122 
-0.352886 0.352856 2.397525 
-0.354507 0.354664 3.170198 
-0.354343 0.354115 2.990664 
-0.344779 0.364107 3.643390 
-0.352273 0.357333 3.466516 
-0.194739 0.461591 3.807413 
-0.170168 0.471269 0.229268 
-0.420578 0.271902 3.842271 
-0.429274 0.258110 0.185276 
-0.155194 0.476820 3.655068 
-0.471020 0.171456 3.702945 
-0.208401 0.456522 3.471318 
-0.452923 0.215834 3.471321 
-0.446621 0.227334 0.998818 
-0.227592 0.446397 0.998732 
-0.184157 0.466564 0.812838 
-0.466553 0.184172 0.812889 
-0.461303 0.188146 2.036894 
-0.187855 0.461678 2.036830 
-0.477337 0.148355 2.591426 
-0.148723 0.477141 2.591525 
-0.460943 0.196761 3.075991 
-0.196539 0.461010 3.076175 
-0.194660 0.462286 0.407598 
-0.454300 0.212400 0.398519 
-0.468893 0.178520 0.598191 
-0.178132 0.469174 0.597998 
-0.460081 0.197374 1.150406 
-0.197808 0.459745 1.150342 
-0.464477 0.182772 2.399182 
-0.182664 0.464188 2.399418 
-0.461865 0.191019 1.341413 
-0.191435 0.461638 1.341340 
-0.461240 0.191005 1.544226 
-0.191087 0.461151 1.543963 
-0.176173 0.466423 1.779357 
-0.466225 0.176497 1.779468 
-0.453547 0.211800 2.842616 
-0.212032 0.453259 2.842931 
-0.463534 0.191705 3.266908 
-0.189653 0.464466 3.267039 
-0.316986 0.387732 0.154911 
-0.316820 0.387812 3.855492 
-0.353297 0.356323 3.329285 
-0.354293 0.353969 1.076786 
-0.092132 0.493277 0.702467 
-0.493137 0.092328 0.702606 
-0.445247 0.224383 2.239265 
-0.224051 0.445246 2.239386 
-0.421028 0.268746 2.505829 
-0.269001 0.420799 2.505900 
-0.489935 0.090902 1.901628 
-0.090561 0.490210 1.901551 
-0.098481 0.490808 3.899367 
-0.487044 0.116600 0.132857 
-0.486725 0.119529 0.266004 
-0.092016 0.492096 0.109842 
-0.483750 0.129553 3.867760 
0.355863 0.353993 0.677533 
0.355254 0.353212 0.211750 
0.353277 0.353001 1.381122 
0.354655 0.354234 0.910948 
0.353953 0.353952 1.112979 
0.352870 0.352844 1.656022 
0.352326 0.352512 1.915575 
0.353880 0.353771 2.803707 
0.352778 0.352767 2.396845 
0.353542 0.353458 2.628326 
0.352278 0.352374 2.159916 
0.354093 0.354009 2.941345 
0.341952 0.367327 3.350691 
0.354704 0.354821 3.622586 
0.458445 0.201990 3.803439 
0.201969 0.458404 3.803683 
0.474426 0.162576 3.646491 
0.162445 0.474478 3.646744 
0.469650 0.175624 0.321346 
0.178164 0.468696 0.320960 
0.191216 0.461449 1.389194 
0.461603 0.190963 1.389018 
0.188031 0.461583 2.035380 
0.461296 0.188110 2.035336 
0.477316 0.148348 2.591629 
0.148404 0.477199 2.591630 
0.150607 0.477784 3.009756 
0.477853 0.150460 3.009695 
0.187071 0.465621 3.471272 
0.465589 0.187403 3.471029 
0.462048 0.191208 1.245087 
0.191346 0.462016 1.245248 
0.191046 0.461060 1.536075 
0.461423 0.190913 1.536234 
0.453786 0.213659 3.230427 
0.164863 0.473831 3.253720 
[...]
POINT_DATA 507
SCALARS u float 1
LOOKUP_TABLE default
0.007043
0.008244
0.009600
0.009288
0.007064
0.008297
0.009232
0.008853
0.006980
0.007240
0.007689
0.008587
0.009037
0.009348
0.009631
0.009523
0.009602
0.008523
0.007886
0.007465
0.007123
0.007298
0.007686
0.008656
0.008890
0.009212
0.009207
0.009097
0.009244
0.008303
0.007661
0.007255
0.006461
0.005352
0.004070
0.004278
0.006131
0.007957
0.008605
0.007408
0.004738
0.003322
0.005205
0.006901
0.007834
0.008180
0.005928
0.003833
0.003725
0.005259
0.006562
0.008586
0.006197
0.003880
0.004257
0.006662
0.007758
0.007800
0.006415
0.004848
0.004237
0.004881
0.006439
0.007790
0.008124
0.006344
0.004186
0.003780
0.005959
0.008389
0.007497
0.005775
0.004229
0.004221
0.005963
0.008150
0.008880
0.006639
0.004517
0.003943
0.005344
0.006770
0.007909
0.008141
0.005900
0.004138
0.004196
0.006010
0.007625
0.008406
0.006158
0.003902
0.004215
0.006367
0.007986
0.008212
0.006625
0.004599
0.004027
0.005007
0.006565
0.007554
0.007247
0.005915
0.003995
0.003766
0.006280
0.008250
0.003921
0.008182
0.007013
0.005756
0.005836
0.007730
0.004227
0.007757
0.006684
0.007959
0.004581
0.007073
0.003573
0.006604
0.008529
0.008002
0.006617
0.006468
0.007259
0.006805
0.007426
0.007571
0.004173
0.004082
0.007858
0.008047
0.005965
0.006314
0.004735
0.004521
0.003822
0.003923
0.004320
0.004520
0.004654
0.004373
0.006912
0.006813
0.007871
0.008170
0.007196
0.006585
0.004982
0.004997
0.006454
0.006939
0.008144
0.008062
0.005424
0.008752
0.004613
0.005246
0.005176
0.005335
0.004056
0.003936
0.009105
0.008263
0.007274
0.007582
0.009188
0.008449
0.004072
0.007173
0.004015
0.005935
0.006952
0.007499
0.006517
0.004270
0.007110
0.007609
0.006876
0.004026
0.006299
0.003679
0.007022
0.003756
0.008135
0.008457
0.008537
0.008815
0.004648
0.004757
0.004402
0.004393
0.004202
0.004123
0.007765
0.007476
0.006227
0.006467
0.006012
0.006127
0.006088
0.005494
0.003999
0.003907
0.003300
0.003522
0.004964
0.004825
0.006407
0.006635
0.007970
0.007854
0.007007
0.006885
0.005206
0.005092
0.007362
0.007674
0.008705
0.009067
0.005045
0.006324
0.006116
0.005316
0.005230
0.008863
0.009275
0.007331
0.007460
0.007517
0.007984
0.008860
0.009169
0.003800
0.004193
0.006298
0.008218
0.006383
0.005504
0.008180
0.008163
0.003794
0.004493
0.008599
0.006696
0.004333
0.006441
0.005978
0.004526
0.006930
0.006766
0.007657
0.007725
0.005649
0.006988
0.004405
0.004798
0.006368
0.006465
0.004420
0.004342
0.003891
0.003358
0.007951
0.008163
0.004972
0.005302
0.005293
0.005991
0.003927
0.004031
0.007691
0.007779
0.006639
0.007310
0.008357
0.008508
0.007129
0.007693
0.005134
0.005049
0.007597
0.008199
0.003522
0.003840
0.007504
0.007348
0.003782
0.007248
0.003933
0.003666
0.005047
0.005431
0.007634
0.007809
0.004023
0.003686
0.006994
0.008574
0.007605
0.007034
0.008309
0.004177
0.006701
0.009129
0.005389
0.007609
0.006451
0.003750
0.007843
0.007230
0.008110
0.005090
0.006552
0.003923
0.006054
0.007217
0.006697
0.006058
0.005612
0.006398
0.005802
0.008556
0.008924
0.003443
0.003935
0.008053
0.008057
0.006114
0.005998
0.004213
0.004647
0.008660
0.008315
0.007930
0.007485
0.003991
0.003916
0.004700
0.004502
0.004188
0.004291
0.006244
0.006566
0.005147
0.004853
0.007113
0.007117
0.007994
0.007911
0.005228
0.007237
0.004630
0.005136
0.006044
0.005938
0.003632
0.003857
0.005197
0.004970
0.007879
0.006810
0.007711
0.007719
0.007621
0.006915
0.010278
0.009292
0.009821
0.009524
0.009745
0.009025
0.010216
0.010186
0.009019
0.010013
0.009675
0.009197
0.008483
0.008977
0.009667
0.009955
0.008480
0.010098
0.009903
0.009921
0.010193
0.009855
0.009343
0.008117
0.009386
0.010195
0.009633
0.010252
0.008893
0.009639
0.008821
0.010441
0.010092
0.009120
0.009682
0.009163
0.008412
0.010313
0.008177
0.009079
0.010308
0.009920
0.009656
0.009920
0.010174
0.010195
0.010233
0.007974
0.009215
0.009632
0.003923
0.009268
0.008226
0.008901
0.008585
0.006043
0.008251
0.008215
0.007486
0.005557
0.008795
0.006195
0.008639
0.006196
0.008907
0.006271
0.005452
0.003273
0.008781
0.008908
0.004691
0.003981
0.009005
0.003095
0.005470
0.008022
0.008051
0.009666
0.009783
0.009622
0.008032
0.002349
0.003237
0.002324
0.002635
0.005536
0.003001
0.005575
0.005441
0.002585
0.005262
0.005510
0.005441
0.008196
0.003018
0.008348
0.008717
0.009035
0.006361
0.005837
0.003648
0.003358
0.009598
0.007536
0.004830
0.004835
0.002158
0.004925
0.002047
0.002544
0.006358
0.006049
0.005459
0.007944
0.006448
0.006393
0.003362
0.008960
0.008823
0.008765
0.008896
0.009040
0.005945
0.005780
0.005650
0.006102
0.009960
0.005687
0.008471
0.005412
0.005385
0.003011
0.007966
0.003486
0.008221
0.008390
0.009275
0.009972
0.006062
