# vtk DataFile Version 2.0
Unstructured Grid Example
ASCII
DATASET UNSTRUCTURED_GRID
POINTS 507 float
-0.000240 0.501440 0.024256 
0.503048 -0.001017 0.028261 
-0.000577 -0.503915 0.032888 
-0.504262 -0.000392 0.031758 
0.000014 0.501026 3.975647 
0.503047 -0.000883 3.971547 
0.000100 -0.503194 3.968306 
-0.503719 -0.000717 3.969690 
0.192081 0.462573 0.024065 
0.355354 0.353993 0.024911 
0.464238 0.191023 0.026429 
0.464089 -0.193520 0.029469 
0.355208 -0.356904 0.030956 
0.191725 -0.465234 0.032084 
-0.193076 -0.465219 0.033024 
-0.356739 -0.355662 0.032636 
-0.465935 -0.192612 0.032866 
-0.465486 0.191620 0.029193 
-0.355802 0.354839 0.027087 
-0.192731 0.463356 0.025680 
0.192319 0.462759 3.975457 
0.355253 0.353830 3.974877 
0.464494 0.191029 3.973604 
0.464787 -0.193291 3.970334 
0.355424 -0.355980 3.969480 
0.192429 -0.464951 3.968377 
-0.192550 -0.464690 3.968374 
-0.356235 -0.355287 3.968774 
-0.465463 -0.192501 3.968322 
-0.465217 0.191227 3.971539 
-0.355682 0.354365 3.973666 
-0.192435 0.463107 3.975019 
0.000360 0.506414 0.221347 
0.000899 0.512104 0.413917 
0.000468 0.513749 0.602819 
-0.000203 0.511880 0.791242 
-0.000456 0.507567 0.980251 
-0.001204 0.501893 1.172637 
-0.000466 0.496354 1.370538 
-0.000139 0.492610 1.575532 
0.000644 0.489964 1.787112 
0.000789 0.488567 1.999893 
0.000187 0.488076 2.213429 
-0.000687 0.492132 2.422462 
-0.001121 0.498507 2.626967 
-0.000652 0.502377 2.828116 
0.000729 0.506673 3.019323 
-0.000183 0.511018 3.207310 
0.000183 0.512661 3.397799 
0.000139 0.512328 3.586685 
0.000224 0.506927 3.778446 
-0.000054 -0.505963 0.229018 
0.000611 -0.509374 0.419208 
0.000522 -0.512224 0.605434 
0.000264 -0.512039 0.791591 
-0.000129 -0.510579 0.979592 
-0.000194 -0.505505 1.173805 
-0.000516 -0.499102 1.373107 
-0.000051 -0.492569 1.579152 
0.000177 -0.487784 1.788576 
-0.000092 -0.485386 2.000384 
-0.000025 -0.488231 2.212047 
-0.000181 -0.493990 2.421390 
-0.000328 -0.501297 2.626845 
-0.000347 -0.505509 2.827482 
-0.000405 -0.509563 3.019687 
-0.000039 -0.511772 3.208366 
0.000063 -0.512010 3.394918 
0.000462 -0.509659 3.581855 
0.000240 -0.506102 3.771708 
0.506819 0.000647 0.224945 
0.511180 0.002069 0.416362 
0.513901 0.001611 0.604129 
0.511751 0.000346 0.791404 
0.507031 -0.000677 0.980674 
0.502398 -0.002662 1.172110 
0.497237 -0.000744 1.369495 
0.494028 0.000259 1.577887 
0.489591 0.001390 1.788484 
0.486526 0.001791 2.000574 
0.487681 0.000975 2.213685 
0.492599 -0.000910 2.422138 
0.499027 -0.001594 2.627225 
0.503630 -0.000967 2.827836 
0.507190 0.000084 3.019045 
0.511309 0.000760 3.208679 
0.513823 0.001483 3.395960 
0.511786 0.001369 3.582993 
0.507293 0.000387 3.774724 
-0.506766 0.001382 0.228168 
-0.510402 0.002212 0.418395 
-0.512429 0.001724 0.604881 
-0.511907 -0.000021 0.791648 
-0.508998 -0.001781 0.980036 
-0.504023 -0.002267 1.172836 
-0.498264 -0.001208 1.371746 
-0.492867 0.000382 1.578285 
-0.489121 0.001476 1.788543 
-0.486266 0.002082 2.000365 
-0.488141 0.001431 2.212478 
-0.493035 0.000375 2.421553 
-0.499533 -0.001769 2.625999 
-0.502731 -0.001939 2.824778 
-0.508233 -0.002071 3.018560 
-0.511421 0.000067 3.207715 
-0.511841 0.001445 3.394850 
-0.511098 0.002212 3.581522 
-0.507378 0.000778 3.772516 
0.362609 -0.363590 0.680439 
0.357458 -0.358500 0.236232 
0.351168 -0.352054 1.453746 
0.360846 -0.361828 0.917014 
0.347184 -0.346490 1.661502 
0.353924 -0.356998 1.184664 
0.344850 -0.342781 1.916452 
0.356896 -0.358227 2.826139 
0.347779 -0.349174 2.415492 
0.353145 -0.355861 2.651834 
0.345498 -0.344177 2.169459 
0.358687 -0.359061 2.961527 
0.375351 -0.348406 3.348647 
0.361860 -0.359632 3.604571 
0.204937 -0.463255 3.778051 
0.464167 -0.203662 3.780000 
0.165373 -0.480857 3.627759 
0.483180 -0.163901 3.629153 
0.178766 -0.476056 0.342200 
0.476781 -0.179333 0.340042 
0.191880 -0.466077 1.177496 
0.463683 -0.194480 1.176903 
0.183905 -0.449737 2.039693 
0.451048 -0.181886 2.039919 
0.147603 -0.478532 2.614887 
0.475549 -0.150024 2.615483 
0.484307 -0.152244 3.026116 
0.152404 -0.486056 3.026668 
0.476233 -0.189592 3.461871 
0.191377 -0.474349 3.461633 
0.218005 -0.462877 3.235555 
0.484310 -0.167517 3.258136 
0.473021 -0.196588 0.554015 
0.197083 -0.472821 0.555679 
0.484957 -0.167356 0.789672 
0.166994 -0.484310 0.790370 
0.470186 -0.191259 1.035208 
0.189092 -0.472033 1.035850 
0.190311 -0.462977 1.321491 
0.460277 -0.192754 1.320507 
0.456427 -0.188587 1.526489 
0.188919 -0.457313 1.528426 
0.172902 -0.456178 1.770311 
0.457645 -0.171611 1.769452 
0.179978 -0.459432 2.417329 
0.457694 -0.181460 2.418708 
0.193142 -0.467816 2.826910 
0.465769 -0.194119 2.826900 
0.358421 -0.364515 0.472017 
0.357952 -0.357337 3.836899 
0.385359 -0.335565 3.155872 
0.286097 -0.421872 3.095028 
0.220125 -0.436515 2.251210 
0.436773 -0.219341 2.251808 
0.088597 -0.478667 1.898196 
0.479842 -0.087147 1.897332 
0.101680 -0.494787 3.870689 
0.495140 -0.101527 3.873696 
0.266431 -0.419808 2.527230 
0.417319 -0.268535 2.528164 
0.190295 -0.467749 0.152537 
0.467717 -0.191420 0.149872 
-0.362208 -0.362212 0.763663 
-0.371368 -0.347302 0.353854 
-0.362788 -0.361702 0.595430 
-0.347040 -0.346199 1.661941 
-0.350923 -0.351257 1.464694 
-0.355467 -0.357657 1.207581 
-0.360114 -0.361901 0.980078 
-0.344954 -0.343044 1.892230 
-0.355472 -0.357198 2.824186 
-0.353132 -0.355088 2.636621 
-0.349554 -0.350709 2.474336 
-0.345229 -0.343449 2.076255 
-0.359573 -0.360611 3.009237 
-0.362231 -0.361719 3.269306 
-0.371743 -0.347562 3.646501 
-0.362141 -0.361310 3.411935 
-0.477447 -0.171511 3.745363 
-0.477315 -0.171137 0.255207 
-0.256406 -0.436390 3.781988 
-0.261835 -0.432774 0.212298 
-0.202766 -0.443363 2.183314 
-0.444121 -0.201148 2.183829 
-0.151944 -0.488918 0.800547 
-0.488914 -0.152466 0.800791 
-0.161249 -0.457963 1.988020 
-0.459051 -0.159214 1.988043 
-0.176163 -0.469652 2.621115 
-0.467586 -0.177977 2.620133 
-0.469710 -0.196065 3.015820 
-0.194992 -0.470779 3.016513 
-0.470403 -0.196402 0.423541 
-0.217904 -0.460304 0.419617 
-0.471121 -0.196922 3.572943 
-0.187581 -0.474303 3.553392 
-0.473683 -0.195312 0.601909 
-0.196444 -0.472985 0.601733 
-0.473533 -0.192923 3.338648 
-0.192515 -0.474569 3.335314 
-0.195189 -0.472459 3.144100 
-0.471999 -0.195693 3.144253 
-0.473982 -0.188326 0.981425 
-0.186302 -0.475500 0.980816 
-0.454930 -0.208667 1.301765 
-0.206939 -0.456160 1.302101 
-0.456217 -0.188339 1.527442 
-0.188489 -0.456125 1.527882 
-0.183471 -0.453036 1.738831 
-0.454418 -0.182046 1.738786 
-0.463446 -0.194051 2.825212 
-0.192438 -0.465419 2.826227 
-0.392268 -0.319503 3.817685 
-0.392243 -0.319512 0.183237 
-0.346287 -0.345466 2.260057 
-0.464610 -0.163015 2.401190 
-0.163192 -0.465513 2.400750 
-0.274850 -0.431279 0.879265 
-0.430451 -0.275877 0.879545 
-0.115050 -0.491685 3.837677 
-0.118204 -0.491202 0.160849 
-0.449553 -0.233268 1.128282 
-0.230922 -0.451640 1.127953 
-0.113213 -0.494494 3.703572 
-0.121479 -0.492660 0.290463 
-0.497181 -0.092459 3.863083 
-0.497351 -0.092270 0.137816 
-0.361737 0.363419 0.700947 
-0.361106 0.364172 0.571273 
-0.347686 0.372932 0.345796 
-0.351227 0.349830 1.437032 
-0.346850 0.347861 1.655715 
-0.361129 0.359968 0.895317 
-0.355308 0.352363 1.229885 
-0.355897 0.353961 2.828065 
-0.344193 0.346337 1.914618 
-0.344211 0.346277 2.169457 
-0.354844 0.352183 2.653652 
-0.348707 0.348488 2.416506 
-0.360476 0.361618 3.179265 
-0.359289 0.357628 3.008840 
-0.350407 0.371234 3.628096 
-0.359250 0.366108 3.459054 
-0.196812 0.467429 3.787749 
-0.171693 0.477712 0.248278 
-0.424794 0.274788 3.820071 
-0.433610 0.261783 0.207545 
-0.157730 0.485479 3.640888 
-0.477965 0.175344 3.683739 
-0.212472 0.467322 3.465114 
-0.462009 0.221812 3.462074 
-0.453614 0.229455 0.981338 
-0.231325 0.451995 0.980714 
-0.187523 0.475956 0.804273 
-0.475876 0.187636 0.804643 
-0.450263 0.185315 2.038920 
-0.183207 0.452984 2.038455 
-0.476920 0.146737 2.615022 
-0.149407 0.475498 2.615747 
-0.468135 0.198754 3.088764 
-0.199079 0.467797 3.090184 
-0.197207 0.472069 0.419672 
-0.461867 0.218394 0.413503 
-0.478377 0.183987 0.602270 
-0.181171 0.480415 0.600867 
-0.464370 0.197389 1.127930 
-0.200535 0.461934 1.127464 
-0.459182 0.181586 2.418175 
-0.180796 0.457087 2.419889 
-0.461394 0.188995 1.316638 
-0.192020 0.459749 1.316106 
-0.456863 0.188895 1.523581 
-0.189495 0.456213 1.521670 
-0.172172 0.458470 1.766948 
-0.457031 0.174526 1.767752 
-0.457412 0.211867 2.864886 
-0.213823 0.455194 2.867180 
-0.472637 0.196087 3.269687 
-0.192669 0.474686 3.271158 
-0.319803 0.392021 0.176638 
-0.319776 0.391644 3.834173 
-0.360087 0.365291 3.329482 
-0.358921 0.356572 1.055885 
-0.093689 0.504496 0.699531 
-0.503478 0.095111 0.700535 
-0.436851 0.221438 2.251359 
-0.219023 0.436842 2.252237 
-0.418749 0.266370 2.528301 
-0.268219 0.417087 2.528820 
-0.479152 0.090578 1.896441 
-0.088102 0.481150 1.895884 
-0.099237 0.494430 3.878890 
-0.491834 0.118295 0.157855 
-0.493558 0.122873 0.287311 
-0.092699 0.495945 0.130401 
-0.488573 0.130838 3.843549 
0.363874 0.363214 0.675250 
0.359406 0.357583 0.230753 
0.351549 0.349542 1.354240 
0.360206 0.359844 0.896992 
0.356451 0.356449 1.090619 
0.348591 0.348402 1.637849 
0.344644 0.345997 1.910778 
0.355923 0.355136 2.826912 
0.347922 0.347845 2.417214 
0.353470 0.352864 2.652446 
0.344298 0.344993 2.170459 
0.357469 0.356864 2.960331 
0.349125 0.376531 3.350856 
0.361907 0.362754 3.608108 
0.463933 0.204601 3.782844 
0.204451 0.463640 3.784620 
0.483086 0.166443 3.631166 
0.165490 0.483465 3.633006 
0.477525 0.179820 0.338161 
0.181363 0.476963 0.335770 
0.190432 0.458375 1.363936 
0.459492 0.188593 1.362660 
0.184484 0.452298 2.037851 
0.450210 0.185052 2.037534 
0.476770 0.146689 2.615522 
0.147092 0.475917 2.615531 
0.153461 0.483178 3.026892 
0.483682 0.152392 3.026448 
0.190682 0.476284 3.465760 
0.476046 0.193094 3.464000 
0.462724 0.190369 1.219345 
0.191374 0.462490 1.220516 
0.189191 0.455552 1.513210 
0.458192 0.188230 1.514365 
0.462399 0.218432 3.237064 
0.167861 0.484006 3.258540 
[...]
POINT_DATA 507
SCALARS u float 1
LOOKUP_TABLE default
0.007043
0.008244
0.009600
0.009288
0.007064
0.008297
0.009232
0.008853
0.006980
0.007240
0.007689
0.008587
0.009037
0.009348
0.009631
0.009523
0.009602
0.008523
0.007886
0.007465
0.007123
0.007298
0.007686
0.008656
0.008890
0.009212
0.009207
0.009097
0.009244
0.008303
0.007661
0.007255
0.006461
0.005352
0.004070
0.004278
0.006131
0.007957
0.008605
0.007408
0.004738
0.003322
0.005205
0.006901
0.007834
0.008180
0.005928
0.003833
0.003725
0.005259
0.006562
0.008586
0.006197
0.003880
0.004257
0.006662
0.007758
0.007800
0.006415
0.004848
0.004237
0.004881
0.006439
0.007790
0.008124
0.006344
0.004186
0.003780
0.005959
0.008389
0.007497
0.005775
0.004229
0.004221
0.005963
0.008150
0.008880
0.006639
0.004517
0.003943
0.005344
0.006770
0.007909
0.008141
0.005900
0.004138
0.004196
0.006010
0.007625
0.008406
0.006158
0.003902
0.004215
0.006367
0.007986
0.008212
0.006625
0.004599
0.004027
0.005007
0.006565
0.007554
0.007247
0.005915
0.003995
0.003766
0.006280
0.008250
0.003921
0.008182
0.007013
0.005756
0.005836
0.007730
0.004227
0.007757
0.006684
0.007959
0.004581
0.007073
0.003573
0.006604
0.008529
0.008002
0.006617
0.006468
0.007259
0.006805
0.007426
0.007571
0.004173
0.004082
0.007858
0.008047
0.005965
0.006314
0.004735
0.004521
0.003822
0.003923
0.004320
0.004520
0.004654
0.004373
0.006912
0.006813
0.007871
0.008170
0.007196
0.006585
0.004982
0.004997
0.006454
0.006939
0.008144
0.008062
0.005424
0.008752
0.004613
0.005246
0.005176
0.005335
0.004056
0.003936
0.009105
0.008263
0.007274
0.007582
0.009188
0.008449
0.004072
0.007173
0.004015
0.005935
0.006952
0.007499
0.006517
0.004270
0.007110
0.007609
0.006876
0.004026
0.006299
0.003679
0.007022
0.003756
0.008135
0.008457
0.008537
0.008815
0.004648
0.004757
0.004402
0.004393
0.004202
0.004123
0.007765
0.007476
0.006227
0.006467
0.006012
0.006127
0.006088
0.005494
0.003999
0.003907
0.003300
0.003522
0.004964
0.004825
0.006407
0.006635
0.007970
0.007854
0.007007
0.006885
0.005206
0.005092
0.007362
0.007674
0.008705
0.009067
0.005045
0.006324
0.006116
0.005316
0.005230
0.008863
0.009275
0.007331
0.007460
0.007517
0.007984
0.008860
0.009169
0.003800
0.004193
0.006298
0.008218
0.006383
0.005504
0.008180
0.008163
0.003794
0.004493
0.008599
0.006696
0.004333
0.006441
0.005978
0.004526
0.006930
0.006766
0.007657
0.007725
0.005649
0.006988
0.004405
0.004798
0.006368
0.006465
0.004420
0.004342
0.003891
0.003358
0.007951
0.008163
0.004972
0.005302
0.005293
0.005991
0.003927
0.004031
0.007691
0.007779
0.006639
0.007310
0.008357
0.008508
0.007129
0.007693
0.005134
0.005049
0.007597
0.008199
0.003522
0.003840
0.007504
0.007348
0.003782
0.007248
0.003933
0.003666
0.005047
0.005431
0.007634
0.007809
0.004023
0.003686
0.006994
0.008574
0.007605
0.007034
0.008309
0.004177
0.006701
0.009129
0.005389
0.007609
0.006451
0.003750
0.007843
0.007230
0.008110
0.005090
0.006552
0.003923
0.006054
0.007217
0.006697
0.006058
0.005612
0.006398
0.005802
0.008556
0.008924
0.003443
0.003935
0.008053
0.008057
0.006114
0.005998
0.004213
0.004647
0.008660
0.008315
0.007930
0.007485
0.003991
0.003916
0.004700
0.004502
0.004188
0.004291
0.006244
0.006566
0.005147
0.004853
0.007113
0.007117
0.007994
0.007911
0.005228
0.007237
0.004630
0.005136
0.006044
0.005938
0.003632
0.003857
0.005197
0.004970
0.007879
0.006810
0.007711
0.007719
0.007621
0.006915
0.010278
0.009292
0.009821
0.009524
0.009745
0.009025
0.010216
0.010186
0.009019
0.010013
0.009675
0.009197
0.008483
0.008977
0.009667
0.009955
0.008480
0.010098
0.009903
0.009921
0.010193
0.009855
0.009343
0.008117
0.009386
0.010195
0.009633
0.010252
0.008893
0.009639
0.008821
0.010441
0.010092
0.009120
0.009682
0.009163
0.008412
0.010313
0.008177
0.009079
0.010308
0.009920
0.009656
0.009920
0.010174
0.010195
0.010233
0.007974
0.009215
0.009632
0.003923
0.009268
0.008226
0.008901
0.008585
0.006043
0.008251
0.008215
0.007486
0.005557
0.008795
0.006195
0.008639
0.006196
0.008907
0.006271
0.005452
0.003273
0.008781
0.008908
0.004691
0.003981
0.009005
0.003095
0.005470
0.008022
0.008051
0.009666
0.009783
0.009622
0.008032
0.002349
0.003237
0.002324
0.002635
0.005536
0.003001
0.005575
0.005441
0.002585
0.005262
0.005510
0.005441
0.008196
0.003018
0.008348
0.008717
0.009035
0.006361
0.005837
0.003648
0.003358
0.009598
0.007536
0.004830
0.004835
0.002158
0.004925
0.002047
0.002544
0.006358
0.006049
0.005459
0.007944
0.006448
0.006393
0.003362
0.008960
0.008823
0.008765
0.008896
0.009040
0.005945
0.005780
0.005650
0.006102
0.009960
0.005687
0.008471
0.005412
0.005385
0.003011
0.007966
0.003486
0.008221
0.008390
0.009275
0.009972
0.006062
