# vtk DataFile Version 2.0
Unstructured Grid Example
ASCII
DATASET UNSTRUCTURED_GRID
POINTS 507 float
0.000301 0.498193 -0.030440 
0.496175 0.001276 -0.035467 
0.000724 -0.495087 -0.041273 
-0.494651 0.000492 -0.039856 
-0.000018 0.498712 4.030562 
0.496176 0.001108 4.035707 
-0.000125 -0.495992 4.039775 
-0.495333 0.000900 4.038038 
0.190414 0.461145 -0.030201 
0.351294 0.353001 -0.031262 
0.459055 0.191742 -0.033167 
0.459243 -0.188608 -0.036982 
0.351477 -0.349348 -0.038849 
0.190861 -0.457806 -0.040265 
-0.189165 -0.457824 -0.041444 
-0.349555 -0.350907 -0.040958 
-0.456926 -0.189747 -0.041245 
-0.457489 0.190992 -0.036637 
-0.350732 0.351939 -0.033993 
-0.189598 0.460162 -0.032228 
0.190116 0.460912 4.030800 
0.351421 0.353207 4.031528 
0.458734 0.191734 4.033126 
0.458366 -0.188895 4.037229 
0.351206 -0.350508 4.038302 
0.189978 -0.458160 4.039686 
-0.189825 -0.458489 4.039690 
-0.350189 -0.351378 4.039188 
-0.457518 -0.189887 4.039755 
-0.457827 0.191485 4.035718 
-0.350882 0.352534 4.033048 
-0.189970 0.460474 4.031350 
-0.000452 0.491951 0.173210 
-0.001128 0.484810 0.382535 
-0.000588 0.482745 0.596462 
0.000255 0.485091 0.810991 
0.000572 0.490504 1.024785 
0.001511 0.497624 1.234340 
0.000584 0.504576 1.436974 
0.000174 0.509274 1.630707 
-0.000808 0.512595 1.816174 
-0.000990 0.514348 2.000134 
-0.000235 0.514964 2.183147 
0.000863 0.509874 2.371811 
0.001407 0.501874 2.566158 
0.000818 0.497017 2.764715 
-0.000914 0.491626 2.975751 
0.000230 0.486172 3.190827 
-0.000229 0.484110 3.402762 
-0.000174 0.484529 3.616709 
-0.000281 0.491307 3.827049 
0.000068 -0.492517 0.163584 
-0.000767 -0.488236 0.375895 
-0.000655 -0.484660 0.593181 
-0.000332 -0.484891 0.810553 
0.000161 -0.486724 1.025611 
0.000243 -0.493092 1.232874 
0.000648 -0.501127 1.433750 
0.000065 -0.509326 1.626164 
-0.000222 -0.515330 1.814336 
0.000115 -0.518340 1.999518 
0.000031 -0.514770 2.184881 
0.000228 -0.507542 2.373157 
0.000412 -0.498373 2.566310 
0.000435 -0.493086 2.765511 
0.000508 -0.487999 2.975293 
0.000048 -0.485227 3.189501 
-0.000079 -0.484927 3.406378 
-0.000580 -0.487878 3.622771 
-0.000302 -0.492342 3.835506 
0.491442 -0.000812 0.168694 
0.485969 -0.002596 0.379467 
0.482554 -0.002022 0.594818 
0.485252 -0.000434 0.810788 
0.491177 0.000850 1.024254 
0.496991 0.003341 1.235001 
0.503468 0.000934 1.438282 
0.507494 -0.000325 1.627751 
0.513062 -0.001745 1.814452 
0.516910 -0.002248 1.999280 
0.515460 -0.001224 2.182826 
0.509288 0.001142 2.372217 
0.501221 0.002000 2.565834 
0.495444 0.001213 2.765067 
0.490977 -0.000105 2.976099 
0.485807 -0.000954 3.189108 
0.482653 -0.001861 3.405071 
0.485209 -0.001718 3.621344 
0.490847 -0.000486 3.831721 
-0.491509 -0.001734 0.164650 
-0.486946 -0.002776 0.376915 
-0.484402 -0.002163 0.593874 
-0.485057 0.000026 0.810482 
-0.488708 0.002235 1.025054 
-0.494951 0.002845 1.234090 
-0.502179 0.001516 1.435458 
-0.508951 -0.000480 1.627251 
-0.513652 -0.001853 1.814379 
-0.517236 -0.002612 1.999542 
-0.514883 -0.001796 2.184340 
-0.508741 -0.000470 2.372952 
-0.500586 0.002220 2.567372 
-0.496573 0.002433 2.768904 
-0.489667 0.002599 2.976708 
-0.485667 -0.000085 3.190318 
-0.485140 -0.001813 3.406463 
-0.486072 -0.002776 3.623189 
-0.490741 -0.000976 3.834491 
0.339859 -0.343281 0.681233 
0.346308 -0.349685 0.174179 
0.356547 -0.355435 1.507937 
0.343916 -0.343654 0.954280 
0.361547 -0.362418 1.701522 
0.353088 -0.349231 1.244301 
0.364475 -0.367072 1.926767 
0.349359 -0.347688 2.767196 
0.360800 -0.359049 2.366124 
0.354066 -0.350657 2.590138 
0.363662 -0.365321 2.147248 
0.347111 -0.346642 2.909178 
0.353941 -0.331269 3.353197 
0.343128 -0.345924 3.650409 
0.197352 -0.450431 3.842719 
0.449286 -0.198952 3.840273 
0.157674 -0.463235 3.675519 
0.460321 -0.159521 3.673769 
0.170170 -0.458774 0.289118 
0.455571 -0.175544 0.291678 
0.190666 -0.456747 1.234505 
0.459752 -0.187403 1.235250 
0.194488 -0.479795 2.033481 
0.478150 -0.197022 2.033198 
0.149882 -0.475986 2.553841 
0.479730 -0.146843 2.553094 
0.467654 -0.147524 2.983050 
0.147323 -0.465459 2.982359 
0.448464 -0.182606 3.485054 
0.180366 -0.450828 3.485354 
0.206485 -0.439275 3.221600 
0.457014 -0.160453 3.246442 
0.445949 -0.189755 0.535304 
0.183909 -0.448378 0.534103 
0.456848 -0.158795 0.810832 
0.157340 -0.458319 0.810086 
0.455772 -0.181210 1.086033 
0.183405 -0.453665 1.085249 
0.192635 -0.460638 1.382646 
0.464026 -0.189569 1.383881 
0.468858 -0.194798 1.580723 
0.194382 -0.467746 1.578293 
0.181719 -0.482145 1.797711 
0.480304 -0.183340 1.798790 
0.186706 -0.472714 2.369374 
0.474896 -0.184846 2.367643 
0.189082 -0.454566 2.765079 
0.457135 -0.187857 2.765091 
0.337936 -0.349194 0.438456 
0.348033 -0.348806 3.903728 
0.365975 -0.320106 3.129918 
0.273775 -0.403711 3.060610 
0.230788 -0.459229 2.219713 
0.458905 -0.231772 2.218962 
0.093911 -0.507960 1.908659 
0.506487 -0.095731 1.909743 
0.098505 -0.483637 3.940578 
0.483193 -0.098696 3.936803 
0.272508 -0.423380 2.471075 
0.426504 -0.269868 2.469903 
0.186021 -0.457373 0.081938 
0.456586 -0.186634 0.085258 
-0.342692 -0.342687 0.779203 
-0.356044 -0.335752 0.301449 
-0.341964 -0.343327 0.581131 
-0.361728 -0.362783 1.702456 
-0.356854 -0.356436 1.518209 
-0.351152 -0.348404 1.265024 
-0.345321 -0.343077 1.024775 
-0.364346 -0.366743 1.905121 
-0.351146 -0.348980 2.769648 
-0.354082 -0.351627 2.577531 
-0.358573 -0.357123 2.421996 
-0.364000 -0.366234 2.065770 
-0.345999 -0.344697 2.964918 
-0.342663 -0.343306 3.259439 
-0.355574 -0.335426 3.697254 
-0.342776 -0.343819 3.425091 
-0.461211 -0.167890 3.806435 
-0.461361 -0.168403 0.191429 
-0.247822 -0.425367 3.846928 
-0.253701 -0.422362 0.144995 
-0.213770 -0.469253 2.160590 
-0.468301 -0.215801 2.159944 
-0.144563 -0.462912 0.821574 
-0.462917 -0.143907 0.821269 
-0.170696 -0.489249 1.988993 
-0.487883 -0.173250 1.988965 
-0.176752 -0.465566 2.560844 
-0.468160 -0.174476 2.562077 
-0.452188 -0.185414 2.971926 
-0.186761 -0.450847 2.971055 
-0.448575 -0.191556 0.382453 
-0.208481 -0.441623 0.376784 
-0.447674 -0.190904 3.613655 
-0.179070 -0.453302 3.589641 
-0.446862 -0.187181 0.588386 
-0.185760 -0.447737 0.588608 
-0.449219 -0.184917 3.340623 
-0.181502 -0.449517 3.336715 
-0.185121 -0.449315 3.114861 
-0.449622 -0.185141 3.116018 
-0.454444 -0.176257 1.025671 
-0.178797 -0.452539 1.026435 
-0.455817 -0.203991 1.363596 
-0.206159 -0.454273 1.363174 
-0.469122 -0.195110 1.579973 
-0.194921 -0.469237 1.579420 
-0.191571 -0.477058 1.770422 
-0.475324 -0.193359 1.770479 
-0.460049 -0.187941 2.768359 
-0.189966 -0.457574 2.767085 
-0.380700 -0.312561 3.884055 
-0.380526 -0.312800 0.113999 
-0.362673 -0.363703 2.229399 
-0.480957 -0.168335 2.355085 
-0.168113 -0.479824 2.355638 
-0.261973 -0.408964 0.911625 
-0.410004 -0.260684 0.911273 
-0.112092 -0.480877 3.905716 
-0.114619 -0.479948 0.089654 
-0.438859 -0.222176 1.183202 
-0.225119 -0.436241 1.183614 
-0.109595 -0.478462 3.759703 
-0.117273 -0.476473 0.230633 
-0.484329 -0.091202 3.930797 
-0.484113 -0.091450 0.067721 
-0.343284 0.341173 0.707163 
-0.344075 0.340227 0.557101 
-0.335270 0.354082 0.302301 
-0.356472 0.358226 1.500204 
-0.361966 0.360697 1.701248 
-0.344046 0.345503 0.931824 
-0.351351 0.355047 1.293352 
-0.350613 0.353042 2.764780 
-0.365300 0.362610 1.927305 
-0.365278 0.362685 2.146896 
-0.351934 0.355273 2.586886 
-0.359636 0.359910 2.366867 
-0.344865 0.343433 3.155554 
-0.346355 0.348440 2.961307 
-0.335690 0.352596 3.668093 
-0.341006 0.343161 3.478569 
-0.191389 0.452160 3.839175 
-0.167706 0.460863 0.198563 
-0.413769 0.267240 3.878128 
-0.422271 0.252177 0.149306 
-0.151097 0.462835 3.677971 
-0.459802 0.165176 3.733966 
-0.201825 0.439077 3.481339 
-0.438249 0.206180 3.486258 
-0.435324 0.223909 1.027051 
-0.221561 0.437356 1.027833 
-0.178720 0.451394 0.826672 
-0.451495 0.178578 0.826208 
-0.479134 0.192719 2.033622 
-0.195364 0.475720 2.034205 
-0.478010 0.150969 2.553312 
-0.147618 0.479795 2.552403 
-0.449325 0.193543 3.055361 
-0.192436 0.450048 3.053546 
-0.190547 0.446484 0.388096 
-0.442079 0.202719 0.374316 
-0.453574 0.169689 0.591603 
-0.173223 0.451016 0.593363 
-0.453153 0.197350 1.186710 
-0.193403 0.456210 1.187295 
-0.473029 0.184689 2.368504 
-0.185680 0.475658 2.366353 
-0.462625 0.194286 1.381429 
-0.190491 0.464689 1.382097 
-0.468311 0.194412 1.577572 
-0.193659 0.469127 1.579970 
-0.182635 0.479269 1.799401 
-0.481075 0.179682 1.798392 
-0.447304 0.211692 2.806646 
-0.209139 0.450134 2.803762 
-0.448829 0.184626 3.262421 
-0.184781 0.447958 3.260387 
-0.312435 0.380804 0.119817 
-0.312047 0.381623 3.889926 
-0.342330 0.341836 3.328968 
-0.346817 0.349765 1.110546 
-0.089616 0.475157 0.707210 
-0.476434 0.087832 0.705950 
-0.458808 0.229140 2.219730 
-0.232171 0.458818 2.218628 
-0.424709 0.272585 2.469532 
-0.270265 0.426794 2.468881 
-0.507352 0.091425 1.910006 
-0.094532 0.504845 1.910705 
-0.097259 0.484959 3.932443 
-0.479308 0.113863 0.092481 
-0.475689 0.114128 0.231588 
-0.090912 0.485878 0.076635 
-0.475959 0.127478 3.906866 
0.342924 0.339100 0.681221 
0.348547 0.346151 0.181055 
0.356069 0.358588 1.424542 
0.345689 0.345174 0.933489 
0.349917 0.349919 1.149095 
0.359780 0.360018 1.685377 
0.364734 0.363037 1.923323 
0.350580 0.351567 2.766227 
0.360620 0.360717 2.363944 
0.353657 0.354419 2.589367 
0.365169 0.364297 2.142888 
0.348640 0.349399 2.910678 
0.330367 0.352461 3.350424 
0.343070 0.342006 3.645971 
0.449579 0.197773 3.836703 
0.197961 0.449948 3.834474 
0.460439 0.156331 3.671243 
0.157527 0.459963 3.668934 
0.456931 0.168847 0.294186 
0.172996 0.455343 0.297039 
0.192483 0.466413 1.429990 
0.465012 0.194792 1.431593 
0.193762 0.476581 2.031388 
0.479201 0.193048 2.031786 
0.478198 0.151029 2.553036 
0.150523 0.479269 2.553024 
0.145996 0.469072 2.982077 
0.468439 0.147338 2.982634 
0.181238 0.448400 3.480174 
0.448698 0.178212 3.482383 
0.460955 0.192562 1.286666 
0.191301 0.461249 1.285196 
0.194040 0.469956 1.573007 
0.466644 0.195247 1.571558 
0.439875 0.205949 3.219707 
[...]
POINT_DATA 507
SCALARS u float 1
LOOKUP_TABLE default
0.007043
0.008244
0.009600
0.009288
0.007064
0.008297
0.009232
0.008853
0.006980
0.007240
0.007689
0.008587
0.009037
0.009348
0.009631
0.009523
0.009602
0.008523
0.007886
0.007465
0.007123
0.007298
0.007686
0.008656
0.008890
0.009212
0.009207
0.009097
0.009244
0.008303
0.007661
0.007255
0.006461
0.005352
0.004070
0.004278
0.006131
0.007957
0.008605
0.007408
0.004738
0.003322
0.005205
0.006901
0.007834
0.008180
0.005928
0.003833
0.003725
0.005259
0.006562
0.008586
0.006197
0.003880
0.004257
0.006662
0.007758
0.007800
0.006415
0.004848
0.004237
0.004881
0.006439
0.007790
0.008124
0.006344
0.004186
0.003780
0.005959
0.008389
0.007497
0.005775
0.004229
0.004221
0.005963
0.008150
0.008880
0.006639
0.004517
0.003943
0.005344
0.006770
0.007909
0.008141
0.005900
0.004138
0.004196
0.006010
0.007625
0.008406
0.006158
0.003902
0.004215
0.006367
0.007986
0.008212
0.006625
0.004599
0.004027
0.005007
0.006565
0.007554
0.007247
0.005915
0.003995
0.003766
0.006280
0.008250
0.003921
0.008182
0.007013
0.005756
0.005836
0.007730
0.004227
0.007757
0.006684
0.007959
0.004581
0.007073
0.003573
0.006604
0.008529
0.008002
0.006617
0.006468
0.007259
0.006805
0.007426
0.007571
0.004173
0.004082
0.007858
0.008047
0.005965
0.006314
0.004735
0.004521
0.003822
0.003923
0.004320
0.004520
0.004654
0.004373
0.006912
0.006813
0.007871
0.008170
0.007196
0.006585
0.004982
0.004997
0.006454
0.006939
0.008144
0.008062
0.005424
0.008752
0.004613
0.005246
0.005176
0.005335
0.004056
0.003936
0.009105
0.008263
0.007274
0.007582
0.009188
0.008449
0.004072
0.007173
0.004015
0.005935
0.006952
0.007499
0.006517
0.004270
0.007110
0.007609
0.006876
0.004026
0.006299
0.003679
0.007022
0.003756
0.008135
0.008457
0.008537
0.008815
0.004648
0.004757
0.004402
0.004393
0.004202
0.004123
0.007765
0.007476
0.006227
0.006467
0.006012
0.006127
0.006088
0.005494
0.003999
0.003907
0.003300
0.003522
0.004964
0.004825
0.006407
0.006635
0.007970
0.007854
0.007007
0.006885
0.005206
0.005092
0.007362
0.007674
0.008705
0.009067
0.005045
0.006324
0.006116
0.005316
0.005230
0.008863
0.009275
0.007331
0.007460
0.007517
0.007984
0.008860
0.009169
0.003800
0.004193
0.006298
0.008218
0.006383
0.005504
0.008180
0.008163
0.003794
0.004493
0.008599
0.006696
0.004333
0.006441
0.005978
0.004526
0.006930
0.006766
0.007657
0.007725
0.005649
0.006988
0.004405
0.004798
0.006368
0.006465
0.004420
0.004342
0.003891
0.003358
0.007951
0.008163
0.004972
0.005302
0.005293
0.005991
0.003927
0.004031
0.007691
0.007779
0.006639
0.007310
0.008357
0.008508
0.007129
0.007693
0.005134
0.005049
0.007597
0.008199
0.003522
0.003840
0.007504
0.007348
0.003782
0.007248
0.003933
0.003666
0.005047
0.005431
0.007634
0.007809
0.004023
0.003686
0.006994
0.008574
0.007605
0.007034
0.008309
0.004177
0.006701
0.009129
0.005389
0.007609
0.006451
0.003750
0.007843
0.007230
0.008110
0.005090
0.006552
0.003923
0.006054
0.007217
0.006697
0.006058
0.005612
0.006398
0.005802
0.008556
0.008924
0.003443
0.003935
0.008053
0.008057
0.006114
0.005998
0.004213
0.004647
0.008660
0.008315
0.007930
0.007485
0.003991
0.003916
0.004700
0.004502
0.004188
0.004291
0.006244
0.006566
0.005147
0.004853
0.007113
0.007117
0.007994
0.007911
0.005228
0.007237
0.004630
0.005136
0.006044
0.005938
0.003632
0.003857
0.005197
0.004970
0.007879
0.006810
0.007711
0.007719
0.007621
0.006915
0.010278
0.009292
0.009821
0.009524
0.009745
0.009025
0.010216
0.010186
0.009019
0.010013
0.009675
0.009197
0.008483
0.008977
0.009667
0.009955
0.008480
0.010098
0.009903
0.009921
0.010193
0.009855
0.009343
0.008117
0.009386
0.010195
0.009633
0.010252
0.008893
0.009639
0.008821
0.010441
0.010092
0.009120
0.009682
0.009163
0.008412
0.010313
0.008177
0.009079
0.010308
0.009920
0.009656
0.009920
0.010174
0.010195
0.010233
0.007974
0.009215
0.009632
0.003923
0.009268
0.008226
0.008901
0.008585
0.006043
0.008251
0.008215
0.007486
0.005557
0.008795
0.006195
0.008639
0.006196
0.008907
0.006271
0.005452
0.003273
0.008781
0.008908
0.004691
0.003981
0.009005
0.003095
0.005470
0.008022
0.008051
0.009666
0.009783
0.009622
0.008032
0.002349
0.003237
0.002324
0.002635
0.005536
0.003001
0.005575
0.005441
0.002585
0.005262
0.005510
0.005441
0.008196
0.003018
0.008348
0.008717
0.009035
0.006361
0.005837
0.003648
0.003358
0.009598
0.007536
0.004830
0.004835
0.002158
0.004925
0.002047
0.002544
0.006358
0.006049
0.005459
0.007944
0.006448
0.006393
0.003362
0.008960
0.008823
0.008765
0.008896
0.009040
0.005945
0.005780
0.005650
0.006102
0.009960
0.005687
0.008471
0.005412
0.005385
0.003011
0.007966
0.003486
0.008221
0.008390
0.009275
0.009972
0.006062
