# vtk DataFile Version 2.0
Unstructured Grid Example
ASCII
DATASET UNSTRUCTURED_GRID
POINTS 507 float
-0.000188 0.501128 0.019003 
0.502388 -0.000797 0.022141 
-0.000452 -0.503067 0.025766 
-0.503339 -0.000307 0.024881 
0.000011 0.500804 3.980921 
0.502387 -0.000692 3.977709 
0.000078 -0.502502 3.975169 
-0.502914 -0.000562 3.976254 
0.191921 0.462436 0.018854 
0.354964 0.353898 0.019516 
0.463741 0.191092 0.020705 
0.463624 -0.193048 0.023087 
0.354849 -0.356179 0.024252 
0.191642 -0.464520 0.025136 
-0.192700 -0.464509 0.025873 
-0.356049 -0.355206 0.025569 
-0.465070 -0.192337 0.025749 
-0.464718 0.191560 0.022871 
-0.355315 0.354561 0.021221 
-0.192430 0.463050 0.020119 
0.192107 0.462581 3.980772 
0.354885 0.353770 3.980318 
0.463941 0.191097 3.979320 
0.464171 -0.192869 3.976759 
0.355019 -0.355455 3.976089 
0.192193 -0.464299 3.975225 
-0.192288 -0.464094 3.975222 
-0.355654 -0.354911 3.975536 
-0.464700 -0.192250 3.975182 
-0.464507 0.191252 3.977702 
-0.355221 0.354190 3.979369 
-0.192198 0.462855 3.980429 
0.000282 0.505025 0.216725 
0.000704 0.509483 0.410903 
0.000367 0.510772 0.602209 
-0.000159 0.509308 0.793139 
-0.000357 0.505928 0.984527 
-0.000943 0.501483 1.178562 
-0.000365 0.497143 1.376918 
-0.000109 0.494211 1.580830 
0.000504 0.492137 1.789903 
0.000618 0.491043 1.999917 
0.000147 0.490658 2.210521 
-0.000539 0.493836 2.417598 
-0.000879 0.498830 2.621127 
-0.000511 0.501862 2.822027 
0.000571 0.505228 3.015138 
-0.000144 0.508632 3.205727 
0.000143 0.509919 3.398276 
0.000109 0.509658 3.589569 
0.000175 0.505427 3.783114 
-0.000042 -0.504672 0.222734 
0.000479 -0.507344 0.415048 
0.000409 -0.509577 0.604257 
0.000207 -0.509432 0.793412 
-0.000101 -0.508288 0.984011 
-0.000152 -0.504313 1.179477 
-0.000404 -0.499296 1.378931 
-0.000040 -0.494178 1.583666 
0.000139 -0.490430 1.791050 
-0.000072 -0.488551 2.000301 
-0.000019 -0.490779 2.209438 
-0.000142 -0.495292 2.416758 
-0.000257 -0.501016 2.621032 
-0.000272 -0.504316 2.821530 
-0.000317 -0.507492 3.015424 
-0.000030 -0.509223 3.206554 
0.000049 -0.509410 3.396018 
0.000362 -0.507567 3.585784 
0.000188 -0.504781 3.777834 
0.505343 0.000507 0.219543 
0.508759 0.001621 0.412818 
0.510891 0.001262 0.603235 
0.509207 0.000271 0.793265 
0.505508 -0.000530 0.984859 
0.501878 -0.002086 1.178150 
0.497835 -0.000583 1.376101 
0.495322 0.000203 1.582676 
0.491845 0.001089 1.790978 
0.489443 0.001403 2.000450 
0.490349 0.000764 2.210721 
0.494202 -0.000713 2.417344 
0.499238 -0.001249 2.621329 
0.502844 -0.000757 2.821808 
0.505633 0.000066 3.014921 
0.508860 0.000595 3.206800 
0.510830 0.001162 3.396835 
0.509233 0.001073 3.586676 
0.505714 0.000303 3.780197 
-0.505301 0.001083 0.222068 
-0.508149 0.001733 0.414412 
-0.509737 0.001350 0.603824 
-0.509329 -0.000016 0.793457 
-0.507049 -0.001395 0.984360 
-0.503152 -0.001776 1.178718 
-0.498640 -0.000946 1.377864 
-0.494412 0.000299 1.582988 
-0.491477 0.001157 1.791024 
-0.489240 0.001631 2.000286 
-0.490709 0.001121 2.209776 
-0.494543 0.000293 2.416885 
-0.499634 -0.001386 2.620369 
-0.502139 -0.001519 2.819412 
-0.506450 -0.001622 3.014541 
-0.508948 0.000053 3.206045 
-0.509277 0.001132 3.395965 
-0.508695 0.001733 3.585523 
-0.505780 0.000609 3.778468 
0.360425 -0.361639 0.680515 
0.356387 -0.357653 0.230273 
0.351685 -0.352378 1.458950 
0.359220 -0.360083 0.920593 
0.348563 -0.348020 1.665345 
0.353844 -0.356252 1.190391 
0.346735 -0.345114 1.917442 
0.356172 -0.357215 2.820479 
0.349029 -0.350123 2.410751 
0.353234 -0.355362 2.645909 
0.347243 -0.346207 2.167326 
0.357575 -0.357868 2.956499 
0.373295 -0.346760 3.349084 
0.360061 -0.358316 3.608973 
0.204208 -0.462023 3.784261 
0.462738 -0.203209 3.785788 
0.164633 -0.479165 3.632345 
0.480985 -0.163481 3.633438 
0.177940 -0.474397 0.337102 
0.474744 -0.178969 0.335397 
0.191763 -0.465181 1.182971 
0.463306 -0.193801 1.182506 
0.184921 -0.452624 2.039097 
0.453650 -0.183340 2.039273 
0.147822 -0.478288 2.609025 
0.475951 -0.149719 2.609491 
0.482708 -0.151790 3.021981 
0.151916 -0.484078 3.022412 
0.473566 -0.188921 3.464098 
0.190319 -0.472090 3.463911 
0.216899 -0.460610 3.234215 
0.481689 -0.166839 3.257013 
0.470421 -0.195932 0.552218 
0.195818 -0.470474 0.553607 
0.482258 -0.166534 0.791704 
0.166066 -0.481814 0.792264 
0.468802 -0.190294 1.040089 
0.188546 -0.470269 1.040594 
0.190534 -0.462753 1.327364 
0.460637 -0.192448 1.326593 
0.457621 -0.189184 1.531698 
0.189444 -0.458315 1.533215 
0.173749 -0.458672 1.772943 
0.459821 -0.172738 1.772269 
0.180624 -0.460708 2.412724 
0.459346 -0.181786 2.413804 
0.192752 -0.466543 2.820972 
0.464939 -0.193517 2.820965 
0.356454 -0.363044 0.468794 
0.357000 -0.356517 3.843317 
0.383497 -0.334080 3.153380 
0.284914 -0.420128 3.091722 
0.221149 -0.438696 2.248185 
0.438899 -0.220535 2.248654 
0.089107 -0.481481 1.899201 
0.482401 -0.087971 1.898524 
0.101375 -0.493717 3.877400 
0.493993 -0.101255 3.879757 
0.267015 -0.420151 2.521837 
0.418201 -0.268663 2.522569 
0.189885 -0.466753 0.145757 
0.466648 -0.190961 0.143667 
-0.360334 -0.360337 0.765155 
-0.369896 -0.346193 0.348822 
-0.360789 -0.359937 0.594056 
-0.348450 -0.347791 1.665832 
-0.351493 -0.351754 1.469833 
-0.355053 -0.356768 1.213097 
-0.358693 -0.360093 0.984370 
-0.346816 -0.345319 1.893468 
-0.355057 -0.356409 2.818948 
-0.353223 -0.354756 2.630947 
-0.350420 -0.351325 2.469309 
-0.347032 -0.345637 2.075248 
-0.358270 -0.359082 3.004981 
-0.360352 -0.359951 3.268359 
-0.370190 -0.346396 3.651375 
-0.360281 -0.359631 3.413198 
-0.475888 -0.171164 3.751228 
-0.475783 -0.170875 0.249082 
-0.255582 -0.435331 3.788224 
-0.261054 -0.431774 0.205835 
-0.203823 -0.445849 2.181132 
-0.446443 -0.202555 2.181535 
-0.151235 -0.486421 0.802567 
-0.486418 -0.151644 0.802757 
-0.162157 -0.460967 1.988114 
-0.461820 -0.160562 1.988132 
-0.176220 -0.469260 2.615327 
-0.467641 -0.177640 2.614557 
-0.468027 -0.195042 3.011604 
-0.194202 -0.468864 3.012148 
-0.468307 -0.195937 0.419595 
-0.216999 -0.458510 0.415504 
-0.468869 -0.196344 3.576852 
-0.186764 -0.472286 3.556873 
-0.471107 -0.194531 0.600611 
-0.195418 -0.470561 0.600473 
-0.471198 -0.192154 3.338838 
-0.191457 -0.472163 3.335448 
-0.194222 -0.470236 3.141292 
-0.469850 -0.194680 3.141542 
-0.472106 -0.187167 0.985674 
-0.185581 -0.473295 0.985197 
-0.455015 -0.208218 1.307703 
-0.206864 -0.455979 1.307966 
-0.457456 -0.188990 1.532487 
-0.189107 -0.457384 1.532831 
-0.184249 -0.455343 1.741865 
-0.456426 -0.183133 1.741830 
-0.463120 -0.193464 2.819752 
-0.192200 -0.464665 2.820548 
-0.391157 -0.318836 3.824059 
-0.391118 -0.318868 0.176588 
-0.347860 -0.347217 2.257113 
-0.466180 -0.163526 2.396763 
-0.163664 -0.466888 2.396418 
-0.273613 -0.429136 0.882373 
-0.428487 -0.274418 0.882592 
-0.114766 -0.490647 3.844211 
-0.117859 -0.490121 0.154012 
-0.448526 -0.232202 1.133556 
-0.230365 -0.450161 1.133299 
-0.112866 -0.492954 3.708963 
-0.121075 -0.491106 0.284717 
-0.495947 -0.092338 3.869586 
-0.496080 -0.092191 0.131084 
-0.359965 0.361282 0.701544 
-0.359470 0.361873 0.569912 
-0.346493 0.371121 0.341619 
-0.351731 0.350636 1.443098 
-0.348301 0.349094 1.660087 
-0.359488 0.358579 0.898823 
-0.354928 0.352621 1.235980 
-0.355389 0.353873 2.821987 
-0.346220 0.347900 1.915837 
-0.346234 0.347853 2.167290 
-0.354565 0.352480 2.647241 
-0.349756 0.349585 2.411739 
-0.358977 0.359871 3.176988 
-0.358047 0.356746 3.004275 
-0.348993 0.369444 3.631937 
-0.357498 0.363904 3.460928 
-0.196292 0.465963 3.792688 
-0.171310 0.476094 0.243504 
-0.423735 0.274064 3.825646 
-0.432521 0.260861 0.201952 
-0.157093 0.483304 3.644450 
-0.476220 0.174368 3.688562 
-0.211449 0.464610 3.466672 
-0.459727 0.220311 3.464396 
-0.451858 0.228922 0.985728 
-0.230388 0.450589 0.985239 
-0.186678 0.473597 0.806424 
-0.473534 0.186766 0.806714 
-0.453036 0.186026 2.038411 
-0.184374 0.455168 2.038047 
-0.477025 0.147143 2.609096 
-0.149235 0.475910 2.609664 
-0.466329 0.198253 3.085556 
-0.198441 0.466093 3.086666 
-0.196567 0.469612 0.416640 
-0.459966 0.216889 0.409739 
-0.475995 0.182614 0.601245 
-0.180408 0.477592 0.600147 
-0.463293 0.197385 1.133575 
-0.199850 0.461385 1.133210 
-0.460511 0.181884 2.413405 
-0.181265 0.458870 2.414748 
-0.461512 0.189503 1.322860 
-0.191873 0.460223 1.322443 
-0.457962 0.189425 1.528766 
-0.189895 0.457453 1.527269 
-0.173177 0.460467 1.770064 
-0.459340 0.175021 1.770695 
-0.456442 0.211850 2.859293 
-0.213373 0.454708 2.861090 
-0.470351 0.194986 3.268989 
-0.191911 0.472119 3.270123 
-0.319096 0.390944 0.171182 
-0.319034 0.390681 3.839527 
-0.358381 0.363039 3.329433 
-0.357759 0.355919 1.061134 
-0.093298 0.501678 0.700268 
-0.500881 0.094412 0.701055 
-0.438960 0.222178 2.248321 
-0.220286 0.438953 2.249010 
-0.419321 0.266967 2.522658 
-0.268415 0.418019 2.523064 
-0.481860 0.090659 1.897743 
-0.088720 0.483425 1.897307 
-0.099047 0.493520 3.884033 
-0.490631 0.117870 0.151577 
-0.491842 0.122033 0.281959 
-0.092527 0.494979 0.125238 
-0.487362 0.130516 3.849629 
0.361862 0.360899 0.675823 
0.358363 0.356485 0.225981 
0.351983 0.350410 1.360992 
0.358812 0.358435 0.900497 
0.355824 0.355822 1.096235 
0.349666 0.349518 1.642413 
0.346574 0.347633 1.911983 
0.355410 0.354794 2.821084 
0.349142 0.349081 2.412098 
0.353488 0.353013 2.646388 
0.346302 0.346847 2.167811 
0.356621 0.356147 2.955563 
0.347324 0.374219 3.350815 
0.360098 0.360762 3.611744 
0.462555 0.203945 3.788017 
0.203828 0.462325 3.789408 
0.480911 0.165472 3.635014 
0.164726 0.481208 3.636456 
0.475547 0.178766 0.333938 
0.180559 0.474886 0.332051 
0.190629 0.459147 1.370280 
0.460022 0.189188 1.369279 
0.185375 0.454630 2.037230 
0.452994 0.185820 2.036982 
0.476907 0.147106 2.609521 
0.147422 0.476239 2.609528 
0.152744 0.481823 3.022588 
0.482218 0.151907 3.022241 
0.189775 0.473606 3.467144 
0.473420 0.191664 3.465766 
0.462554 0.190580 1.225810 
0.191367 0.462371 1.226728 
0.189657 0.456935 1.518952 
0.459003 0.188903 1.519857 
0.460236 0.217233 3.235397 
0.167108 0.481451 3.257329 
[...]
POINT_DATA 507
SCALARS u float 1
LOOKUP_TABLE default
0.007043
0.008244
0.009600
0.009288
0.007064
0.008297
0.009232
0.008853
0.006980
0.007240
0.007689
0.008587
0.009037
0.009348
0.009631
0.009523
0.009602
0.008523
0.007886
0.007465
0.007123
0.007298
0.007686
0.008656
0.008890
0.009212
0.009207
0.009097
0.009244
0.008303
0.007661
0.007255
0.006461
0.005352
0.004070
0.004278
0.006131
0.007957
0.008605
0.007408
0.004738
0.003322
0.005205
0.006901
0.007834
0.008180
0.005928
0.003833
0.003725
0.005259
0.006562
0.008586
0.006197
0.003880
0.004257
0.006662
0.007758
0.007800
0.006415
0.004848
0.004237
0.004881
0.006439
0.007790
0.008124
0.006344
0.004186
0.003780
0.005959
0.008389
0.007497
0.005775
0.004229
0.004221
0.005963
0.008150
0.008880
0.006639
0.004517
0.003943
0.005344
0.006770
0.007909
0.008141
0.005900
0.004138
0.004196
0.006010
0.007625
0.008406
0.006158
0.003902
0.004215
0.006367
0.007986
0.008212
0.006625
0.004599
0.004027
0.005007
0.006565
0.007554
0.007247
0.005915
0.003995
0.003766
0.006280
0.008250
0.003921
0.008182
0.007013
0.005756
0.005836
0.007730
0.004227
0.007757
0.006684
0.007959
0.004581
0.007073
0.003573
0.006604
0.008529
0.008002
0.006617
0.006468
0.007259
0.006805
0.007426
0.007571
0.004173
0.004082
0.007858
0.008047
0.005965
0.006314
0.004735
0.004521
0.003822
0.003923
0.004320
0.004520
0.004654
0.004373
0.006912
0.006813
0.007871
0.008170
0.007196
0.006585
0.004982
0.004997
0.006454
0.006939
0.008144
0.008062
0.005424
0.008752
0.004613
0.005246
0.005176
0.005335
0.004056
0.003936
0.009105
0.008263
0.007274
0.007582
0.009188
0.008449
0.004072
0.007173
0.004015
0.005935
0.006952
0.007499
0.006517
0.004270
0.007110
0.007609
0.006876
0.004026
0.006299
0.003679
0.007022
0.003756
0.008135
0.008457
0.008537
0.008815
0.004648
0.004757
0.004402
0.004393
0.004202
0.004123
0.007765
0.007476
0.006227
0.006467
0.006012
0.006127
0.006088
0.005494
0.003999
0.003907
0.003300
0.003522
0.004964
0.004825
0.006407
0.006635
0.007970
0.007854
0.007007
0.006885
0.005206
0.005092
0.007362
0.007674
0.008705
0.009067
0.005045
0.006324
0.006116
0.005316
0.005230
0.008863
0.009275
0.007331
0.007460
0.007517
0.007984
0.008860
0.009169
0.003800
0.004193
0.006298
0.008218
0.006383
0.005504
0.008180
0.008163
0.003794
0.004493
0.008599
0.006696
0.004333
0.006441
0.005978
0.004526
0.006930
0.006766
0.007657
0.007725
0.005649
0.006988
0.004405
0.004798
0.006368
0.006465
0.004420
0.004342
0.003891
0.003358
0.007951
0.008163
0.004972
0.005302
0.005293
0.005991
0.003927
0.004031
0.007691
0.007779
0.006639
0.007310
0.008357
0.008508
0.007129
0.007693
0.005134
0.005049
0.007597
0.008199
0.003522
0.003840
0.007504
0.007348
0.003782
0.007248
0.003933
0.003666
0.005047
0.005431
0.007634
0.007809
0.004023
0.003686
0.006994
0.008574
0.007605
0.007034
0.008309
0.004177
0.006701
0.009129
0.005389
0.007609
0.006451
0.003750
0.007843
0.007230
0.008110
0.005090
0.006552
0.003923
0.006054
0.007217
0.006697
0.006058
0.005612
0.006398
0.005802
0.008556
0.008924
0.003443
0.003935
0.008053
0.008057
0.006114
0.005998
0.004213
0.004647
0.008660
0.008315
0.007930
0.007485
0.003991
0.003916
0.004700
0.004502
0.004188
0.004291
0.006244
0.006566
0.005147
0.004853
0.007113
0.007117
0.007994
0.007911
0.005228
0.007237
0.004630
0.005136
0.006044
0.005938
0.003632
0.003857
0.005197
0.004970
0.007879
0.006810
0.007711
0.007719
0.007621
0.006915
0.010278
0.009292
0.009821
0.009524
0.009745
0.009025
0.010216
0.010186
0.009019
0.010013
0.009675
0.009197
0.008483
0.008977
0.009667
0.009955
0.008480
0.010098
0.009903
0.009921
0.010193
0.009855
0.009343
0.008117
0.009386
0.010195
0.009633
0.010252
0.008893
0.009639
0.008821
0.010441
0.010092
0.009120
0.009682
0.009163
0.008412
0.010313
0.008177
0.009079
0.010308
0.009920
0.009656
0.009920
0.010174
0.010195
0.010233
0.007974
0.009215
0.009632
0.003923
0.009268
0.008226
0.008901
0.008585
0.006043
0.008251
0.008215
0.007486
0.005557
0.008795
0.006195
0.008639
0.006196
0.008907
0.006271
0.005452
0.003273
0.008781
0.008908
0.004691
0.003981
0.009005
0.003095
0.005470
0.008022
0.008051
0.009666
0.009783
0.009622
0.008032
0.002349
0.003237
0.002324
0.002635
0.005536
0.003001
0.005575
0.005441
0.002585
0.005262
0.005510
0.005441
0.008196
0.003018
0.008348
0.008717
0.009035
0.006361
0.005837
0.003648
0.003358
0.009598
0.007536
0.004830
0.004835
0.002158
0.004925
0.002047
0.002544
0.006358
0.006049
0.005459
0.007944
0.006448
0.006393
0.003362
0.008960
0.008823
0.008765
0.008896
0.009040
0.005945
0.005780
0.005650
0.006102
0.009960
0.005687
0.008471
0.005412
0.005385
0.003011
0.007966
0.003486
0.008221
0.008390
0.009275
0.009972
0.006062
