# vtk DataFile Version 2.0
Unstructured Grid Example
ASCII
DATASET UNSTRUCTURED_GRID
POINTS 507 float
-0.000328 0.501971 0.033216 
0.504174 -0.001392 0.038701 
-0.000790 -0.505362 0.045037 
-0.505836 -0.000537 0.043490 
0.000020 0.501406 3.966651 
0.504173 -0.001209 3.961037 
0.000136 -0.504374 3.956598 
-0.505093 -0.000982 3.958494 
0.192354 0.462807 0.032955 
0.356019 0.354156 0.034113 
0.465087 0.190905 0.036192 
0.464883 -0.194325 0.040355 
0.355819 -0.358142 0.042391 
0.191866 -0.466450 0.043936 
-0.193716 -0.466430 0.045224 
-0.357916 -0.356441 0.044693 
-0.467411 -0.193082 0.045007 
-0.466796 0.191723 0.039978 
-0.356632 0.355314 0.037093 
-0.193244 0.463880 0.035167 
0.192679 0.463061 3.966391 
0.355880 0.353932 3.965597 
0.465438 0.190914 3.963853 
0.465839 -0.194011 3.959376 
0.356115 -0.356877 3.958205 
0.192830 -0.466064 3.956695 
-0.192996 -0.465705 3.956691 
-0.357225 -0.355927 3.957238 
-0.466765 -0.192929 3.956619 
-0.466428 0.191185 3.961025 
-0.356468 0.354665 3.963938 
-0.192839 0.463539 3.965791 
0.000493 0.508783 0.229233 
0.001231 0.516575 0.419058 
0.000641 0.518829 0.603860 
-0.000278 0.516269 0.788007 
-0.000624 0.510362 0.972955 
-0.001649 0.502593 1.162529 
-0.000637 0.495007 1.359655 
-0.000190 0.489881 1.566493 
0.000881 0.486257 1.782351 
0.001080 0.484343 1.999854 
0.000256 0.483672 2.218390 
-0.000941 0.489226 2.430760 
-0.001536 0.497955 2.636929 
-0.000893 0.503255 2.838502 
0.000998 0.509138 3.026461 
-0.000251 0.515089 3.210010 
0.000250 0.517339 3.396987 
0.000190 0.516882 3.581767 
0.000307 0.509486 3.770484 
-0.000074 -0.508166 0.239737 
0.000837 -0.512837 0.426304 
0.000715 -0.516739 0.607441 
0.000362 -0.516487 0.788484 
-0.000176 -0.514487 0.972053 
-0.000265 -0.507538 1.164128 
-0.000707 -0.498770 1.363172 
-0.000070 -0.489823 1.571450 
0.000242 -0.483272 1.784356 
-0.000126 -0.479987 2.000526 
-0.000034 -0.483883 2.216498 
-0.000248 -0.491770 2.429291 
-0.000450 -0.501776 2.636762 
-0.000475 -0.507545 2.837634 
-0.000555 -0.513095 3.026960 
-0.000053 -0.516121 3.211456 
0.000086 -0.516447 3.393040 
0.000633 -0.513227 3.575152 
0.000329 -0.508356 3.761256 
0.509338 0.000886 0.234161 
0.515311 0.002833 0.422406 
0.519036 0.002206 0.605655 
0.516093 0.000474 0.788228 
0.509628 -0.000927 0.973535 
0.503283 -0.003646 1.161807 
0.496216 -0.001019 1.358227 
0.491822 0.000355 1.569718 
0.485746 0.001904 1.784230 
0.481548 0.002453 2.000786 
0.483130 0.001335 2.218740 
0.489865 -0.001246 2.430316 
0.498668 -0.002182 2.637282 
0.504971 -0.001324 2.838119 
0.509846 0.000115 3.026081 
0.515487 0.001041 3.211886 
0.518929 0.002031 3.394467 
0.516139 0.001875 3.576710 
0.509987 0.000530 3.765386 
-0.509266 0.001893 0.238574 
-0.514245 0.003029 0.425191 
-0.517020 0.002360 0.606684 
-0.516306 -0.000028 0.788563 
-0.512322 -0.002438 0.972662 
-0.505509 -0.003105 1.162801 
-0.497622 -0.001654 1.361308 
-0.490233 0.000523 1.570264 
-0.485103 0.002022 1.784310 
-0.481192 0.002851 2.000500 
-0.483759 0.001960 2.217088 
-0.490462 0.000513 2.429514 
-0.499361 -0.002423 2.635603 
-0.503739 -0.002655 2.833932 
-0.511275 -0.002836 3.025416 
-0.515640 0.000092 3.210565 
-0.516215 0.001978 3.392948 
-0.515198 0.003029 3.574696 
-0.510103 0.001065 3.762364 
0.366336 -0.366917 0.680309 
0.359284 -0.359944 0.246397 
0.350287 -0.351500 1.444868 
0.363619 -0.364806 0.910909 
0.344831 -0.343881 1.654946 
0.354061 -0.358270 1.174894 
0.341635 -0.338802 1.914762 
0.358131 -0.359953 2.835795 
0.345646 -0.347557 2.423580 
0.352995 -0.356714 2.661941 
0.342523 -0.340713 2.173098 
0.360583 -0.361095 2.970102 
0.378858 -0.351214 3.347901 
0.364929 -0.361878 3.597062 
0.206179 -0.465355 3.767457 
0.466605 -0.204433 3.770126 
0.166634 -0.483744 3.619935 
0.486925 -0.164619 3.621844 
0.180174 -0.478887 0.350895 
0.480256 -0.179953 0.347965 
0.192079 -0.467606 1.168157 
0.464327 -0.195640 1.167345 
0.182171 -0.444813 2.040711 
0.446608 -0.179407 2.041020 
0.147229 -0.478950 2.624888 
0.474864 -0.150546 2.625703 
0.487036 -0.153017 3.033171 
0.153237 -0.489430 3.033926 
0.480782 -0.190736 3.458074 
0.193181 -0.478202 3.457747 
0.219893 -0.466743 3.237841 
0.488782 -0.168675 3.260052 
0.477456 -0.197708 0.557080 
0.199241 -0.476825 0.559214 
0.489562 -0.168759 0.786205 
0.168575 -0.488569 0.787140 
0.472548 -0.192906 1.026882 
0.190024 -0.475043 1.027758 
0.189930 -0.463361 1.311472 
0.459663 -0.193276 1.310125 
0.454390 -0.187570 1.517605 
0.188024 -0.455604 1.520257 
0.171458 -0.451924 1.765823 
0.453933 -0.169690 1.764646 
0.178876 -0.457256 2.425185 
0.454876 -0.180906 2.427074 
0.193807 -0.469986 2.837039 
0.467183 -0.195144 2.837026 
0.361777 -0.367025 0.477515 
0.359577 -0.358734 3.825951 
0.388534 -0.338097 3.160124 
0.288115 -0.424847 3.100666 
0.218379 -0.432794 2.256369 
0.433148 -0.217305 2.257189 
0.087726 -0.473869 1.896482 
0.475477 -0.085740 1.895299 
0.102200 -0.496614 3.859239 
0.497098 -0.101991 3.863358 
0.265435 -0.419223 2.536429 
0.415814 -0.268317 2.537708 
0.190995 -0.469449 0.164103 
0.469540 -0.192205 0.160457 
-0.365405 -0.365411 0.761117 
-0.373878 -0.349194 0.362439 
-0.366200 -0.364712 0.597772 
-0.344634 -0.343482 1.655304 
-0.349952 -0.350408 1.455927 
-0.356174 -0.359173 1.198171 
-0.362537 -0.364985 0.972755 
-0.341777 -0.339161 1.890119 
-0.356181 -0.358544 2.833120 
-0.352976 -0.355655 2.646302 
-0.348076 -0.349658 2.482910 
-0.342154 -0.339716 2.077972 
-0.361797 -0.363218 3.016498 
-0.365437 -0.364736 3.270923 
-0.374392 -0.349550 3.638186 
-0.365313 -0.364176 3.409779 
-0.480107 -0.172105 3.735358 
-0.479929 -0.171585 0.265655 
-0.257812 -0.438196 3.771350 
-0.263168 -0.434480 0.223324 
-0.200964 -0.439121 2.187037 
-0.440160 -0.198747 2.187742 
-0.153153 -0.493179 0.797103 
-0.493173 -0.153868 0.797436 
-0.159702 -0.452837 1.987861 
-0.454328 -0.156915 1.987892 
-0.176067 -0.470322 2.630989 
-0.467492 -0.178550 2.629643 
-0.472580 -0.197810 3.023010 
-0.196341 -0.474044 3.023960 
-0.473979 -0.197196 0.430272 
-0.219448 -0.463364 0.426634 
-0.474962 -0.197908 3.566273 
-0.188975 -0.477743 3.547453 
-0.478077 -0.196644 0.604125 
-0.198195 -0.477121 0.603883 
-0.477516 -0.194235 3.338324 
-0.194319 -0.478673 3.335084 
-0.196838 -0.476250 3.148890 
-0.475665 -0.197422 3.148879 
-0.477183 -0.190303 0.974177 
-0.187531 -0.479262 0.973342 
-0.454785 -0.209433 1.291636 
-0.207067 -0.456470 1.292096 
-0.454103 -0.187230 1.518836 
-0.187436 -0.453977 1.519439 
-0.182144 -0.449100 1.733656 
-0.450993 -0.180193 1.733594 
-0.464003 -0.195052 2.834526 
-0.192843 -0.466704 2.835916 
-0.394163 -0.320640 3.806812 
-0.394162 -0.320612 0.194580 
-0.343602 -0.342478 2.265079 
-0.461932 -0.162144 2.408743 
-0.162385 -0.463169 2.408140 
-0.276959 -0.434935 0.873964 
-0.433801 -0.278366 0.874348 
-0.115534 -0.493455 3.826531 
-0.118791 -0.493046 0.172512 
-0.451305 -0.235085 1.119285 
-0.231873 -0.454162 1.118835 
-0.113806 -0.497120 3.694377 
-0.122168 -0.495312 0.300264 
-0.499286 -0.092665 3.851990 
-0.499520 -0.092405 0.149299 
-0.364760 0.367063 0.699929 
-0.363896 0.368095 0.573595 
-0.349720 0.376020 0.352921 
-0.350368 0.348454 1.426683 
-0.344373 0.345758 1.648255 
-0.363928 0.362338 0.889337 
-0.355957 0.351924 1.219488 
-0.356762 0.354112 2.838432 
-0.340735 0.343671 1.912540 
-0.340760 0.343589 2.173153 
-0.355321 0.351677 2.664590 
-0.346916 0.346617 2.424637 
-0.363034 0.364597 3.183149 
-0.361408 0.359133 3.016626 
-0.352818 0.374287 3.621544 
-0.362238 0.369867 3.455857 
-0.197701 0.469931 3.779324 
-0.172346 0.480472 0.256422 
-0.426600 0.276025 3.810560 
-0.435467 0.263357 0.217086 
-0.158817 0.489188 3.634814 
-0.480940 0.177010 3.675511 
-0.214216 0.471950 3.462456 
-0.465901 0.224373 3.458112 
-0.456611 0.230363 0.973849 
-0.232925 0.454393 0.972995 
-0.188965 0.479979 0.800604 
-0.479870 0.189120 0.801110 
-0.445534 0.184102 2.039788 
-0.181215 0.449260 2.039151 
-0.476741 0.146044 2.625132 
-0.149700 0.474794 2.626124 
-0.471217 0.199607 3.094236 
-0.200167 0.470705 3.096186 
-0.198298 0.476260 0.424845 
-0.465108 0.220962 0.419922 
-0.482440 0.186329 0.604017 
-0.182473 0.485232 0.602097 
-0.466208 0.197396 1.118301 
-0.201703 0.462872 1.117662 
-0.456913 0.181078 2.426312 
-0.179996 0.454044 2.428660 
-0.461192 0.188129 1.306024 
-0.192270 0.458939 1.305295 
-0.454987 0.187992 1.514737 
-0.188813 0.454097 1.512120 
-0.170458 0.455063 1.761631 
-0.453092 0.173681 1.762733 
-0.459068 0.211896 2.874427 
-0.214590 0.456023 2.877570 
-0.476537 0.197965 3.270877 
-0.193961 0.479065 3.272922 
-0.321010 0.393859 0.185947 
-0.321042 0.393285 3.825039 
-0.362996 0.369134 3.329566 
-0.360904 0.357688 1.046931 
-0.094357 0.509302 0.698273 
-0.507908 0.096304 0.699648 
-0.433254 0.220177 2.256540 
-0.216869 0.433242 2.257743 
-0.417772 0.265351 2.537929 
-0.267883 0.415497 2.538639 
-0.474533 0.090440 1.894218 
-0.087049 0.477268 1.893456 
-0.099561 0.495981 3.870117 
-0.493886 0.119021 0.168564 
-0.496485 0.124306 0.296439 
-0.092992 0.497595 0.139209 
-0.490640 0.131389 3.833176 
0.367306 0.367165 0.674271 
0.361185 0.359455 0.238895 
0.350808 0.348059 1.342724 
0.362585 0.362247 0.891013 
0.357522 0.357519 1.081040 
0.346759 0.346499 1.630063 
0.341353 0.343205 1.908723 
0.356798 0.355721 2.836853 
0.345842 0.345736 2.425941 
0.353440 0.352609 2.662779 
0.340879 0.341830 2.174976 
0.358915 0.358087 2.968465 
0.352198 0.380474 3.350927 
0.364993 0.366153 3.601905 
0.466285 0.205719 3.774021 
0.205514 0.465883 3.776453 
0.486796 0.168100 3.624600 
0.166795 0.487315 3.627120 
0.480899 0.181617 0.345365 
0.182734 0.480504 0.342115 
0.190096 0.457059 1.353115 
0.458587 0.187577 1.351367 
0.182964 0.448319 2.038909 
0.445461 0.183742 2.038475 
0.476536 0.145978 2.625759 
0.146530 0.475368 2.625771 
0.154684 0.485489 3.034234 
0.486179 0.153220 3.033626 
0.192229 0.480852 3.463399 
0.480526 0.195531 3.460989 
0.463014 0.190010 1.208316 
0.191386 0.462693 1.209920 
0.188397 0.453192 1.503414 
0.456807 0.187080 1.504995 
0.466089 0.220477 3.239907 
0.169145 0.488366 3.260604 
[...]
POINT_DATA 507
SCALARS u float 1
LOOKUP_TABLE default
0.007043
0.008244
0.009600
0.009288
0.007064
0.008297
0.009232
0.008853
0.006980
0.007240
0.007689
0.008587
0.009037
0.009348
0.009631
0.009523
0.009602
0.008523
0.007886
0.007465
0.007123
0.007298
0.007686
0.008656
0.008890
0.009212
0.009207
0.009097
0.009244
0.008303
0.007661
0.007255
0.006461
0.005352
0.004070
0.004278
0.006131
0.007957
0.008605
0.007408
0.004738
0.003322
0.005205
0.006901
0.007834
0.008180
0.005928
0.003833
0.003725
0.005259
0.006562
0.008586
0.006197
0.003880
0.004257
0.006662
0.007758
0.007800
0.006415
0.004848
0.004237
0.004881
0.006439
0.007790
0.008124
0.006344
0.004186
0.003780
0.005959
0.008389
0.007497
0.005775
0.004229
0.004221
0.005963
0.008150
0.008880
0.006639
0.004517
0.003943
0.005344
0.006770
0.007909
0.008141
0.005900
0.004138
0.004196
0.006010
0.007625
0.008406
0.006158
0.003902
0.004215
0.006367
0.007986
0.008212
0.006625
0.004599
0.004027
0.005007
0.006565
0.007554
0.007247
0.005915
0.003995
0.003766
0.006280
0.008250
0.003921
0.008182
0.007013
0.005756
0.005836
0.007730
0.004227
0.007757
0.006684
0.007959
0.004581
0.007073
0.003573
0.006604
0.008529
0.008002
0.006617
0.006468
0.007259
0.006805
0.007426
0.007571
0.004173
0.004082
0.007858
0.008047
0.005965
0.006314
0.004735
0.004521
0.003822
0.003923
0.004320
0.004520
0.004654
0.004373
0.006912
0.006813
0.007871
0.008170
0.007196
0.006585
0.004982
0.004997
0.006454
0.006939
0.008144
0.008062
0.005424
0.008752
0.004613
0.005246
0.005176
0.005335
0.004056
0.003936
0.009105
0.008263
0.007274
0.007582
0.009188
0.008449
0.004072
0.007173
0.004015
0.005935
0.006952
0.007499
0.006517
0.004270
0.007110
0.007609
0.006876
0.004026
0.006299
0.003679
0.007022
0.003756
0.008135
0.008457
0.008537
0.008815
0.004648
0.004757
0.004402
0.004393
0.004202
0.004123
0.007765
0.007476
0.006227
0.006467
0.006012
0.006127
0.006088
0.005494
0.003999
0.003907
0.003300
0.003522
0.004964
0.004825
0.006407
0.006635
0.007970
0.007854
0.007007
0.006885
0.005206
0.005092
0.007362
0.007674
0.008705
0.009067
0.005045
0.006324
0.006116
0.005316
0.005230
0.008863
0.009275
0.007331
0.007460
0.007517
0.007984
0.008860
0.009169
0.003800
0.004193
0.006298
0.008218
0.006383
0.005504
0.008180
0.008163
0.003794
0.004493
0.008599
0.006696
0.004333
0.006441
0.005978
0.004526
0.006930
0.006766
0.007657
0.007725
0.005649
0.006988
0.004405
0.004798
0.006368
0.006465
0.004420
0.004342
0.003891
0.003358
0.007951
0.008163
0.004972
0.005302
0.005293
0.005991
0.003927
0.004031
0.007691
0.007779
0.006639
0.007310
0.008357
0.008508
0.007129
0.007693
0.005134
0.005049
0.007597
0.008199
0.003522
0.003840
0.007504
0.007348
0.003782
0.007248
0.003933
0.003666
0.005047
0.005431
0.007634
0.007809
0.004023
0.003686
0.006994
0.008574
0.007605
0.007034
0.008309
0.004177
0.006701
0.009129
0.005389
0.007609
0.006451
0.003750
0.007843
0.007230
0.008110
0.005090
0.006552
0.003923
0.006054
0.007217
0.006697
0.006058
0.005612
0.006398
0.005802
0.008556
0.008924
0.003443
0.003935
0.008053
0.008057
0.006114
0.005998
0.004213
0.004647
0.008660
0.008315
0.007930
0.007485
0.003991
0.003916
0.004700
0.004502
0.004188
0.004291
0.006244
0.006566
0.005147
0.004853
0.007113
0.007117
0.007994
0.007911
0.005228
0.007237
0.004630
0.005136
0.006044
0.005938
0.003632
0.003857
0.005197
0.004970
0.007879
0.006810
0.007711
0.007719
0.007621
0.006915
0.010278
0.009292
0.009821
0.009524
0.009745
0.009025
0.010216
0.010186
0.009019
0.010013
0.009675
0.009197
0.008483
0.008977
0.009667
0.009955
0.008480
0.010098
0.009903
0.009921
0.010193
0.009855
0.009343
0.008117
0.009386
0.010195
0.009633
0.010252
0.008893
0.009639
0.008821
0.010441
0.010092
0.009120
0.009682
0.009163
0.008412
0.010313
0.008177
0.009079
0.010308
0.009920
0.009656
0.009920
0.010174
0.010195
0.010233
0.007974
0.009215
0.009632
0.003923
0.009268
0.008226
0.008901
0.008585
0.006043
0.008251
0.008215
0.007486
0.005557
0.008795
0.006195
0.008639
0.006196
0.008907
0.006271
0.005452
0.003273
0.008781
0.008908
0.004691
0.003981
0.009005
0.003095
0.005470
0.008022
0.008051
0.009666
0.009783
0.009622
0.008032
0.002349
0.003237
0.002324
0.002635
0.005536
0.003001
0.005575
0.005441
0.002585
0.005262
0.005510
0.005441
0.008196
0.003018
0.008348
0.008717
0.009035
0.006361
0.005837
0.003648
0.003358
0.009598
0.007536
0.004830
0.004835
0.002158
0.004925
0.002047
0.002544
0.006358
0.006049
0.005459
0.007944
0.006448
0.006393
0.003362
0.008960
0.008823
0.008765
0.008896
0.009040
0.005945
0.005780
0.005650
0.006102
0.009960
0.005687
0.008471
0.005412
0.005385
0.003011
0.007966
0.003486
0.008221
0.008390
0.009275
0.009972
0.006062
