# vtk DataFile Version 2.0
Unstructured Grid Example
ASCII
DATASET UNSTRUCTURED_GRID
POINTS 507 float
-0.000316 0.501898 0.031973 
0.504018 -0.001340 0.037253 
-0.000761 -0.505161 0.043352 
-0.505618 -0.000517 0.041863 
0.000019 0.501353 3.967899 
0.504017 -0.001164 3.962495 
0.000131 -0.504210 3.958222 
-0.504902 -0.000945 3.960047 
0.192316 0.462775 0.031722 
0.355927 0.354133 0.032837 
0.464970 0.190921 0.034837 
0.464773 -0.194213 0.038845 
0.355734 -0.357970 0.040805 
0.191847 -0.466282 0.042292 
-0.193628 -0.466262 0.043531 
-0.357753 -0.356333 0.043020 
-0.467206 -0.193017 0.043322 
-0.466614 0.191709 0.038481 
-0.356517 0.355249 0.035705 
-0.193173 0.463807 0.033850 
0.192629 0.463019 3.967649 
0.355793 0.353918 3.966884 
0.465307 0.190930 3.965206 
0.465693 -0.193911 3.960896 
0.356019 -0.356752 3.959770 
0.192775 -0.465909 3.958316 
-0.192934 -0.465564 3.958312 
-0.357088 -0.355838 3.958839 
-0.466584 -0.192870 3.958243 
-0.466260 0.191191 3.962483 
-0.356359 0.354624 3.965288 
-0.192783 0.463479 3.967072 
0.000475 0.508454 0.228139 
0.001185 0.515955 0.418344 
0.000617 0.518124 0.603716 
-0.000267 0.515660 0.788456 
-0.000601 0.509974 0.973967 
-0.001587 0.502496 1.163931 
-0.000614 0.495194 1.361165 
-0.000183 0.490259 1.567747 
0.000848 0.486771 1.783012 
0.001040 0.484929 1.999860 
0.000247 0.484283 2.217702 
-0.000906 0.489629 2.429608 
-0.001478 0.498031 2.635547 
-0.000860 0.503133 2.837061 
0.000960 0.508796 3.025470 
-0.000242 0.514524 3.209635 
0.000241 0.516690 3.397099 
0.000183 0.516250 3.582449 
0.000295 0.509131 3.771589 
-0.000071 -0.507860 0.238250 
0.000805 -0.512356 0.425319 
0.000688 -0.516113 0.607163 
0.000348 -0.515870 0.788915 
-0.000169 -0.513945 0.973099 
-0.000255 -0.507256 1.165471 
-0.000680 -0.498816 1.364551 
-0.000068 -0.490204 1.572519 
0.000233 -0.483898 1.784942 
-0.000121 -0.480736 2.000507 
-0.000032 -0.484486 2.215880 
-0.000239 -0.492078 2.428195 
-0.000433 -0.501709 2.635386 
-0.000457 -0.507262 2.836225 
-0.000534 -0.512605 3.025951 
-0.000051 -0.515517 3.211028 
0.000083 -0.515832 3.393301 
0.000609 -0.512732 3.576082 
0.000317 -0.508044 3.762706 
0.508989 0.000853 0.232882 
0.514738 0.002727 0.421567 
0.518324 0.002124 0.605443 
0.515490 0.000456 0.788668 
0.509268 -0.000892 0.974525 
0.503160 -0.003509 1.163237 
0.496358 -0.000981 1.359790 
0.492128 0.000342 1.570852 
0.486280 0.001833 1.784821 
0.482239 0.002361 2.000756 
0.483762 0.001285 2.218039 
0.490244 -0.001199 2.429182 
0.498718 -0.002101 2.635887 
0.504785 -0.001274 2.836692 
0.509478 0.000111 3.025105 
0.514908 0.001002 3.211441 
0.518221 0.001955 3.394674 
0.515535 0.001805 3.577582 
0.509614 0.000510 3.766682 
-0.508919 0.001822 0.237130 
-0.513711 0.002916 0.424248 
-0.516383 0.002272 0.606434 
-0.515696 -0.000027 0.788991 
-0.511861 -0.002347 0.973685 
-0.505303 -0.002988 1.164193 
-0.497711 -0.001592 1.362756 
-0.490598 0.000504 1.571377 
-0.485660 0.001946 1.784897 
-0.481896 0.002744 2.000481 
-0.484367 0.001886 2.216448 
-0.490819 0.000494 2.428410 
-0.499385 -0.002332 2.634271 
-0.503599 -0.002556 2.832662 
-0.510853 -0.002730 3.024465 
-0.515055 0.000089 3.210170 
-0.515608 0.001904 3.393212 
-0.514629 0.002916 3.575643 
-0.509725 0.001025 3.763772 
0.365819 -0.366455 0.680327 
0.359031 -0.359743 0.244987 
0.350410 -0.351577 1.446100 
0.363235 -0.364392 0.911756 
0.345157 -0.344243 1.655855 
0.354042 -0.358094 1.176250 
0.342081 -0.339354 1.914996 
0.357959 -0.359714 2.834455 
0.345942 -0.347781 2.422458 
0.353015 -0.356596 2.660538 
0.342936 -0.341194 2.172593 
0.360320 -0.360813 2.968913 
0.378371 -0.350824 3.348005 
0.364503 -0.361567 3.598104 
0.206007 -0.465064 3.768926 
0.466267 -0.204326 3.771496 
0.166459 -0.483344 3.621020 
0.486405 -0.164519 3.622858 
0.179978 -0.478494 0.349689 
0.479774 -0.179867 0.346865 
0.192051 -0.467394 1.169453 
0.464238 -0.195479 1.168671 
0.182411 -0.445497 2.040570 
0.447224 -0.179751 2.040867 
0.147281 -0.478892 2.623500 
0.474959 -0.150473 2.624285 
0.486657 -0.152910 3.032193 
0.153121 -0.488962 3.032919 
0.480150 -0.190577 3.458600 
0.192930 -0.477667 3.458286 
0.219631 -0.466207 3.237524 
0.488162 -0.168514 3.259786 
0.476841 -0.197552 0.556655 
0.198942 -0.476270 0.558724 
0.488923 -0.168564 0.786686 
0.168356 -0.487978 0.787589 
0.472220 -0.192677 1.028037 
0.189895 -0.474625 1.028881 
0.189983 -0.463307 1.312862 
0.459748 -0.193203 1.311566 
0.454673 -0.187711 1.518837 
0.188148 -0.455841 1.521390 
0.171659 -0.452514 1.766445 
0.454448 -0.169956 1.765313 
0.179029 -0.457558 2.424095 
0.455267 -0.180983 2.425913 
0.193715 -0.469685 2.835634 
0.466987 -0.195002 2.835621 
0.361311 -0.366677 0.476752 
0.359352 -0.358540 3.827470 
0.388094 -0.337746 3.159534 
0.287835 -0.424435 3.099884 
0.218621 -0.433310 2.255653 
0.433651 -0.217587 2.256442 
0.087847 -0.474534 1.896719 
0.476082 -0.085935 1.895581 
0.102128 -0.496361 3.860828 
0.496826 -0.101927 3.864793 
0.265574 -0.419304 2.535153 
0.416023 -0.268347 2.536384 
0.190898 -0.469213 0.162498 
0.469287 -0.192096 0.158989 
-0.364962 -0.364967 0.761470 
-0.373530 -0.348932 0.361248 
-0.365727 -0.364294 0.597447 
-0.344968 -0.343859 1.656224 
-0.350086 -0.350526 1.457143 
-0.356076 -0.358962 1.199476 
-0.362201 -0.364557 0.973771 
-0.342218 -0.339700 1.890412 
-0.356082 -0.358357 2.831881 
-0.352998 -0.355577 2.644959 
-0.348281 -0.349804 2.481720 
-0.342581 -0.340234 2.077734 
-0.361488 -0.362856 3.015491 
-0.364992 -0.364317 3.270699 
-0.374024 -0.349274 3.639340 
-0.364873 -0.363778 3.410078 
-0.479738 -0.172022 3.736746 
-0.479566 -0.171523 0.264206 
-0.257617 -0.437945 3.772826 
-0.262983 -0.434243 0.221794 
-0.201214 -0.439710 2.186521 
-0.440709 -0.199080 2.187199 
-0.152985 -0.492588 0.797581 
-0.492582 -0.153674 0.797902 
-0.159916 -0.453548 1.987883 
-0.454983 -0.157234 1.987913 
-0.176080 -0.470229 2.629619 
-0.467505 -0.178470 2.628324 
-0.472182 -0.197568 3.022013 
-0.196153 -0.473591 3.022927 
-0.473483 -0.197086 0.429338 
-0.219233 -0.462939 0.425661 
-0.474429 -0.197771 3.567199 
-0.188782 -0.477266 3.548277 
-0.477467 -0.196459 0.603817 
-0.197952 -0.476548 0.603585 
-0.476964 -0.194053 3.338369 
-0.194069 -0.478104 3.335116 
-0.196609 -0.475724 3.148226 
-0.475156 -0.197182 3.148237 
-0.476739 -0.190029 0.975182 
-0.187361 -0.478740 0.974379 
-0.454805 -0.209327 1.293041 
-0.207049 -0.456427 1.293484 
-0.454396 -0.187384 1.520030 
-0.187582 -0.454275 1.520610 
-0.182328 -0.449646 1.734374 
-0.451468 -0.180450 1.734314 
-0.463925 -0.194913 2.833234 
-0.192787 -0.466525 2.834572 
-0.393900 -0.320483 3.808321 
-0.393896 -0.320459 0.193006 
-0.343975 -0.342893 2.264383 
-0.462304 -0.162264 2.407695 
-0.162497 -0.463494 2.407115 
-0.276667 -0.434428 0.874699 
-0.433336 -0.278021 0.875069 
-0.115467 -0.493209 3.828078 
-0.118709 -0.492790 0.170894 
-0.451062 -0.234832 1.120533 
-0.231741 -0.453812 1.120100 
-0.113724 -0.496756 3.695653 
-0.122073 -0.494944 0.298904 
-0.498994 -0.092636 3.853529 
-0.499219 -0.092386 0.147705 
-0.364340 0.366558 0.700071 
-0.363509 0.367551 0.573273 
-0.349437 0.375591 0.351932 
-0.350487 0.348645 1.428119 
-0.344717 0.346050 1.649290 
-0.363539 0.362009 0.890166 
-0.355867 0.351985 1.220930 
-0.356642 0.354091 2.836994 
-0.341215 0.344041 1.912828 
-0.341239 0.343962 2.172640 
-0.355255 0.351747 2.663073 
-0.347165 0.346877 2.423509 
-0.362679 0.364184 3.182610 
-0.361114 0.358924 3.015546 
-0.352483 0.373864 3.622453 
-0.361824 0.369345 3.456301 
-0.197578 0.469583 3.780493 
-0.172256 0.480089 0.255292 
-0.426350 0.275853 3.811880 
-0.435210 0.263139 0.215762 
-0.158666 0.488674 3.635656 
-0.480527 0.176779 3.676652 
-0.213974 0.471308 3.462824 
-0.465361 0.224017 3.458661 
-0.456195 0.230237 0.974888 
-0.232703 0.454060 0.974066 
-0.188765 0.479421 0.801113 
-0.479315 0.188914 0.801600 
-0.446190 0.184270 2.039667 
-0.181491 0.449776 2.039055 
-0.476766 0.146140 2.623729 
-0.149660 0.474891 2.624684 
-0.470789 0.199489 3.093477 
-0.200016 0.470301 3.095353 
-0.198146 0.475679 0.424127 
-0.464659 0.220606 0.419031 
-0.481877 0.186004 0.603775 
-0.182293 0.484564 0.601926 
-0.465953 0.197395 1.119637 
-0.201541 0.462742 1.119022 
-0.457228 0.181148 2.425184 
-0.180107 0.454466 2.427443 
-0.461220 0.188249 1.307497 
-0.192235 0.459052 1.306795 
-0.455247 0.188117 1.515964 
-0.188908 0.454391 1.513445 
-0.170696 0.455535 1.762369 
-0.453639 0.173798 1.763429 
-0.458839 0.211892 2.873103 
-0.214484 0.455908 2.876128 
-0.475996 0.197704 3.270712 
-0.193782 0.478457 3.272677 
-0.320843 0.393604 0.184655 
-0.320866 0.393057 3.826306 
-0.362592 0.368601 3.329555 
-0.360629 0.357533 1.048173 
-0.094264 0.508635 0.698447 
-0.507294 0.096138 0.699771 
-0.433753 0.220352 2.255822 
-0.217168 0.433742 2.256979 
-0.417908 0.265493 2.536593 
-0.267930 0.415717 2.537277 
-0.475174 0.090459 1.894527 
-0.087195 0.477807 1.893793 
-0.099516 0.495766 3.871334 
-0.493601 0.118921 0.167078 
-0.496079 0.124107 0.295173 
-0.092951 0.497366 0.137987 
-0.490353 0.131313 3.834615 
0.366829 0.366617 0.674407 
0.360938 0.359195 0.237765 
0.350911 0.348265 1.344322 
0.362255 0.361913 0.891842 
0.357373 0.357371 1.082369 
0.347013 0.346763 1.631143 
0.341810 0.343592 1.909008 
0.356676 0.355640 2.835474 
0.346130 0.346029 2.424730 
0.353444 0.352645 2.661346 
0.341353 0.342269 2.174349 
0.358714 0.357917 2.967337 
0.351772 0.379927 3.350917 
0.364565 0.365682 3.602766 
0.465959 0.205564 3.775245 
0.205367 0.465572 3.777586 
0.486281 0.167870 3.625511 
0.166614 0.486781 3.627937 
0.480431 0.181368 0.344365 
0.182543 0.480013 0.341235 
0.190142 0.457241 1.354617 
0.458713 0.187718 1.352934 
0.183175 0.448871 2.038762 
0.446120 0.183924 2.038345 
0.476569 0.146076 2.624339 
0.146608 0.475444 2.624350 
0.154515 0.485168 3.033215 
0.485833 0.153105 3.032630 
0.192014 0.480218 3.463727 
0.479904 0.195193 3.461407 
0.462974 0.190060 1.209846 
0.191385 0.462665 1.211390 
0.188507 0.453520 1.504773 
0.456999 0.187239 1.506295 
0.465577 0.220193 3.239513 
0.168966 0.487761 3.260318 
[...]
POINT_DATA 507
SCALARS u float 1
LOOKUP_TABLE default
0.007043
0.008244
0.009600
0.009288
0.007064
0.008297
0.009232
0.008853
0.006980
0.007240
0.007689
0.008587
0.009037
0.009348
0.009631
0.009523
0.009602
0.008523
0.007886
0.007465
0.007123
0.007298
0.007686
0.008656
0.008890
0.009212
0.009207
0.009097
0.009244
0.008303
0.007661
0.007255
0.006461
0.005352
0.004070
0.004278
0.006131
0.007957
0.008605
0.007408
0.004738
0.003322
0.005205
0.006901
0.007834
0.008180
0.005928
0.003833
0.003725
0.005259
0.006562
0.008586
0.006197
0.003880
0.004257
0.006662
0.007758
0.007800
0.006415
0.004848
0.004237
0.004881
0.006439
0.007790
0.008124
0.006344
0.004186
0.003780
0.005959
0.008389
0.007497
0.005775
0.004229
0.004221
0.005963
0.008150
0.008880
0.006639
0.004517
0.003943
0.005344
0.006770
0.007909
0.008141
0.005900
0.004138
0.004196
0.006010
0.007625
0.008406
0.006158
0.003902
0.004215
0.006367
0.007986
0.008212
0.006625
0.004599
0.004027
0.005007
0.006565
0.007554
0.007247
0.005915
0.003995
0.003766
0.006280
0.008250
0.003921
0.008182
0.007013
0.005756
0.005836
0.007730
0.004227
0.007757
0.006684
0.007959
0.004581
0.007073
0.003573
0.006604
0.008529
0.008002
0.006617
0.006468
0.007259
0.006805
0.007426
0.007571
0.004173
0.004082
0.007858
0.008047
0.005965
0.006314
0.004735
0.004521
0.003822
0.003923
0.004320
0.004520
0.004654
0.004373
0.006912
0.006813
0.007871
0.008170
0.007196
0.006585
0.004982
0.004997
0.006454
0.006939
0.008144
0.008062
0.005424
0.008752
0.004613
0.005246
0.005176
0.005335
0.004056
0.003936
0.009105
0.008263
0.007274
0.007582
0.009188
0.008449
0.004072
0.007173
0.004015
0.005935
0.006952
0.007499
0.006517
0.004270
0.007110
0.007609
0.006876
0.004026
0.006299
0.003679
0.007022
0.003756
0.008135
0.008457
0.008537
0.008815
0.004648
0.004757
0.004402
0.004393
0.004202
0.004123
0.007765
0.007476
0.006227
0.006467
0.006012
0.006127
0.006088
0.005494
0.003999
0.003907
0.003300
0.003522
0.004964
0.004825
0.006407
0.006635
0.007970
0.007854
0.007007
0.006885
0.005206
0.005092
0.007362
0.007674
0.008705
0.009067
0.005045
0.006324
0.006116
0.005316
0.005230
0.008863
0.009275
0.007331
0.007460
0.007517
0.007984
0.008860
0.009169
0.003800
0.004193
0.006298
0.008218
0.006383
0.005504
0.008180
0.008163
0.003794
0.004493
0.008599
0.006696
0.004333
0.006441
0.005978
0.004526
0.006930
0.006766
0.007657
0.007725
0.005649
0.006988
0.004405
0.004798
0.006368
0.006465
0.004420
0.004342
0.003891
0.003358
0.007951
0.008163
0.004972
0.005302
0.005293
0.005991
0.003927
0.004031
0.007691
0.007779
0.006639
0.007310
0.008357
0.008508
0.007129
0.007693
0.005134
0.005049
0.007597
0.008199
0.003522
0.003840
0.007504
0.007348
0.003782
0.007248
0.003933
0.003666
0.005047
0.005431
0.007634
0.007809
0.004023
0.003686
0.006994
0.008574
0.007605
0.007034
0.008309
0.004177
0.006701
0.009129
0.005389
0.007609
0.006451
0.003750
0.007843
0.007230
0.008110
0.005090
0.006552
0.003923
0.006054
0.007217
0.006697
0.006058
0.005612
0.006398
0.005802
0.008556
0.008924
0.003443
0.003935
0.008053
0.008057
0.006114
0.005998
0.004213
0.004647
0.008660
0.008315
0.007930
0.007485
0.003991
0.003916
0.004700
0.004502
0.004188
0.004291
0.006244
0.006566
0.005147
0.004853
0.007113
0.007117
0.007994
0.007911
0.005228
0.007237
0.004630
0.005136
0.006044
0.005938
0.003632
0.003857
0.005197
0.004970
0.007879
0.006810
0.007711
0.007719
0.007621
0.006915
0.010278
0.009292
0.009821
0.009524
0.009745
0.009025
0.010216
0.010186
0.009019
0.010013
0.009675
0.009197
0.008483
0.008977
0.009667
0.009955
0.008480
0.010098
0.009903
0.009921
0.010193
0.009855
0.009343
0.008117
0.009386
0.010195
0.009633
0.010252
0.008893
0.009639
0.008821
0.010441
0.010092
0.009120
0.009682
0.009163
0.008412
0.010313
0.008177
0.009079
0.010308
0.009920
0.009656
0.009920
0.010174
0.010195
0.010233
0.007974
0.009215
0.009632
0.003923
0.009268
0.008226
0.008901
0.008585
0.006043
0.008251
0.008215
0.007486
0.005557
0.008795
0.006195
0.008639
0.006196
0.008907
0.006271
0.005452
0.003273
0.008781
0.008908
0.004691
0.003981
0.009005
0.003095
0.005470
0.008022
0.008051
0.009666
0.009783
0.009622
0.008032
0.002349
0.003237
0.002324
0.002635
0.005536
0.003001
0.005575
0.005441
0.002585
0.005262
0.005510
0.005441
0.008196
0.003018
0.008348
0.008717
0.009035
0.006361
0.005837
0.003648
0.003358
0.009598
0.007536
0.004830
0.004835
0.002158
0.004925
0.002047
0.002544
0.006358
0.006049
0.005459
0.007944
0.006448
0.006393
0.003362
0.008960
0.008823
0.008765
0.008896
0.009040
0.005945
0.005780
0.005650
0.006102
0.009960
0.005687
0.008471
0.005412
0.005385
0.003011
0.007966
0.003486
0.008221
0.008390
0.009275
0.009972
0.006062
