# vtk DataFile Version 2.0
Unstructured Grid Example
ASCII
DATASET UNSTRUCTURED_GRID
POINTS 507 float
0.000344 0.497935 -0.034792 
0.495628 0.001458 -0.040537 
0.000828 -0.494384 -0.047173 
-0.493887 0.000562 -0.045553 
-0.000021 0.498528 4.034931 
0.495629 0.001266 4.040811 
-0.000143 -0.495419 4.045461 
-0.494666 0.001028 4.043475 
0.190281 0.461031 -0.034518 
0.350971 0.352923 -0.035731 
0.458643 0.191800 -0.037908 
0.458857 -0.188217 -0.042269 
0.351181 -0.348747 -0.044402 
0.190792 -0.457215 -0.046020 
-0.188854 -0.457236 -0.047369 
-0.348984 -0.350528 -0.046812 
-0.456210 -0.189519 -0.047141 
-0.456853 0.190942 -0.041874 
-0.350329 0.351709 -0.038852 
-0.189349 0.459908 -0.036835 
0.189940 0.460765 4.035203 
0.351116 0.353157 4.036035 
0.458276 0.191790 4.037861 
0.457855 -0.188546 4.042551 
0.350870 -0.350073 4.043777 
0.189783 -0.457620 4.045359 
-0.189609 -0.457996 4.045364 
-0.349708 -0.351067 4.044790 
-0.456886 -0.189679 4.045438 
-0.457239 0.191506 4.040824 
-0.350500 0.352389 4.037772 
-0.189773 0.460265 4.035831 
-0.000517 0.490801 0.169380 
-0.001289 0.482639 0.380039 
-0.000672 0.480278 0.595957 
0.000291 0.482959 0.812562 
0.000654 0.489146 1.028328 
0.001727 0.497284 1.239248 
0.000668 0.505230 1.442259 
0.000199 0.510599 1.635096 
-0.000923 0.514395 1.818486 
-0.001131 0.516399 2.000153 
-0.000269 0.517103 2.180738 
0.000986 0.511285 2.367781 
0.001609 0.502142 2.561320 
0.000935 0.496591 2.759672 
-0.001045 0.490429 2.972284 
0.000263 0.484196 3.189515 
-0.000262 0.481839 3.403156 
-0.000199 0.482317 3.619098 
-0.000321 0.490064 3.830916 
0.000078 -0.491447 0.158378 
-0.000876 -0.486554 0.372449 
-0.000749 -0.482467 0.592206 
-0.000379 -0.482731 0.812062 
0.000184 -0.484826 1.029272 
0.000278 -0.492104 1.237573 
0.000740 -0.501288 1.438574 
0.000074 -0.510659 1.629904 
-0.000254 -0.517522 1.816385 
0.000132 -0.520962 1.999449 
0.000035 -0.516882 2.182720 
0.000260 -0.508620 2.369319 
0.000471 -0.498140 2.561495 
0.000498 -0.492097 2.760581 
0.000581 -0.486284 2.971762 
0.000055 -0.483115 3.188000 
-0.000090 -0.482773 3.407290 
-0.000663 -0.486145 3.626027 
-0.000345 -0.491247 3.840582 
0.490219 -0.000928 0.164219 
0.483963 -0.002967 0.376532 
0.480061 -0.002311 0.594077 
0.483144 -0.000496 0.812330 
0.489915 0.000971 1.027721 
0.496561 0.003818 1.240004 
0.503964 0.001068 1.443754 
0.508565 -0.000372 1.631718 
0.514930 -0.001994 1.816518 
0.519327 -0.002569 1.999177 
0.517670 -0.001398 2.180371 
0.510616 0.001305 2.368246 
0.501395 0.002286 2.560950 
0.494793 0.001387 2.760073 
0.489687 -0.000120 2.972682 
0.483778 -0.001090 3.187551 
0.480173 -0.002127 3.405795 
0.483095 -0.001964 3.624395 
0.489539 -0.000555 3.836255 
-0.490295 -0.001982 0.159596 
-0.485080 -0.003173 0.373615 
-0.482172 -0.002472 0.592999 
-0.482921 0.000030 0.811980 
-0.487094 0.002554 1.028635 
-0.494229 0.003252 1.238963 
-0.502490 0.001732 1.440527 
-0.510231 -0.000548 1.631147 
-0.515604 -0.002118 1.816434 
-0.519700 -0.002986 1.999476 
-0.517011 -0.002053 2.182101 
-0.509991 -0.000537 2.369086 
-0.500670 0.002538 2.562708 
-0.496083 0.002781 2.764459 
-0.488190 0.002970 2.973378 
-0.483618 -0.000097 3.188934 
-0.483016 -0.002072 3.407387 
-0.484081 -0.003173 3.626504 
-0.489418 -0.001116 3.839421 
0.338049 -0.341665 0.681296 
0.345421 -0.348983 0.169243 
0.356974 -0.355704 1.512248 
0.342569 -0.342208 0.957245 
0.362690 -0.363685 1.704706 
0.353022 -0.348613 1.249046 
0.366037 -0.369005 1.927588 
0.348759 -0.346850 2.762507 
0.361836 -0.359835 2.362196 
0.354139 -0.350243 2.585230 
0.365107 -0.367003 2.145480 
0.346191 -0.345654 2.905013 
0.352238 -0.329906 3.353559 
0.341638 -0.344834 3.654056 
0.196748 -0.449411 3.847864 
0.448102 -0.198577 3.845068 
0.157062 -0.461833 3.679318 
0.458502 -0.159173 3.677319 
0.169486 -0.457399 0.284895 
0.453883 -0.175243 0.287831 
0.190570 -0.456005 1.239041 
0.459439 -0.186840 1.239892 
0.195330 -0.482186 2.032986 
0.480306 -0.198226 2.032663 
0.150064 -0.475784 2.548985 
0.480063 -0.146590 2.548131 
0.466329 -0.147149 2.979624 
0.146918 -0.463821 2.978834 
0.446255 -0.182050 3.486899 
0.179490 -0.448957 3.487241 
0.205568 -0.437398 3.220489 
0.454842 -0.159891 3.245511 
0.443795 -0.189212 0.533816 
0.182861 -0.446434 0.532387 
0.454612 -0.158114 0.812515 
0.156572 -0.456251 0.811654 
0.454625 -0.180410 1.090077 
0.182952 -0.452203 1.089179 
0.192820 -0.460451 1.387511 
0.464324 -0.189316 1.388922 
0.469847 -0.195293 1.585038 
0.194817 -0.468576 1.582260 
0.182421 -0.484211 1.799891 
0.482107 -0.184273 1.801124 
0.187241 -0.473771 2.365559 
0.476265 -0.185115 2.363581 
0.188760 -0.453512 2.760160 
0.456448 -0.187359 2.760174 
0.336306 -0.347975 0.435786 
0.347244 -0.348127 3.909044 
0.364433 -0.318876 3.127854 
0.272794 -0.402266 3.057872 
0.231636 -0.461037 2.217207 
0.460666 -0.232761 2.216349 
0.094334 -0.510291 1.909491 
0.508606 -0.096414 1.910730 
0.098252 -0.482749 3.946138 
0.482243 -0.098471 3.941824 
0.272992 -0.423664 2.466608 
0.427234 -0.269974 2.465268 
0.185681 -0.456547 0.076322 
0.455701 -0.186254 0.080118 
-0.341139 -0.341133 0.780439 
-0.354825 -0.334833 0.297280 
-0.340307 -0.341866 0.579993 
-0.362896 -0.364103 1.705680 
-0.357326 -0.356848 1.522466 
-0.350809 -0.347667 1.269594 
-0.344144 -0.341580 1.028330 
-0.365888 -0.368628 1.906146 
-0.350801 -0.348326 2.765309 
-0.354158 -0.351352 2.572830 
-0.359290 -0.357633 2.417832 
-0.365493 -0.368047 2.064935 
-0.344919 -0.343431 2.961392 
-0.341106 -0.341841 3.258654 
-0.354287 -0.334461 3.701291 
-0.341236 -0.342427 3.426138 
-0.459919 -0.167602 3.811293 
-0.460091 -0.168186 0.186356 
-0.247139 -0.424490 3.852094 
-0.253054 -0.421534 0.139641 
-0.214646 -0.471313 2.158782 
-0.470225 -0.216967 2.158043 
-0.143975 -0.460844 0.823247 
-0.460849 -0.143226 0.822898 
-0.171448 -0.491738 1.989071 
-0.490177 -0.174367 1.989038 
-0.176798 -0.465241 2.556049 
-0.468205 -0.174198 2.557459 
-0.450795 -0.184566 2.968434 
-0.186106 -0.449262 2.967439 
-0.446839 -0.191171 0.379185 
-0.207732 -0.440137 0.373376 
-0.445808 -0.190425 3.616893 
-0.178393 -0.451631 3.592525 
-0.444728 -0.186534 0.587311 
-0.184910 -0.445729 0.587564 
-0.447284 -0.184280 3.340780 
-0.180626 -0.447524 3.336827 
-0.184320 -0.447473 3.112535 
-0.447842 -0.184302 3.113772 
-0.452889 -0.175297 1.029191 
-0.178200 -0.450713 1.030065 
-0.455887 -0.203619 1.368515 
-0.206097 -0.454122 1.368033 
-0.470149 -0.195648 1.584152 
-0.195433 -0.470280 1.583521 
-0.192216 -0.478969 1.772935 
-0.476987 -0.194260 1.773000 
-0.459779 -0.187455 2.763837 
-0.189770 -0.456950 2.762380 
-0.379779 -0.312009 3.889335 
-0.379594 -0.312266 0.108491 
-0.363977 -0.365154 2.226960 
-0.482258 -0.168758 2.351417 
-0.168505 -0.480962 2.352049 
-0.260949 -0.407189 0.914200 
-0.408377 -0.259475 0.913797 
-0.111857 -0.480017 3.911129 
-0.114333 -0.479052 0.083990 
-0.438009 -0.221294 1.187571 
-0.224658 -0.435016 1.188042 
-0.109307 -0.477187 3.764169 
-0.116938 -0.475185 0.225873 
-0.483307 -0.091102 3.936184 
-0.483060 -0.091385 0.062144 
-0.341816 0.339403 0.707657 
-0.342721 0.338322 0.555974 
-0.334282 0.352582 0.298841 
-0.356890 0.358894 1.505229 
-0.363169 0.361719 1.704870 
-0.342687 0.344353 0.934728 
-0.351036 0.355261 1.298401 
-0.350192 0.352969 2.759745 
-0.366980 0.363904 1.928314 
-0.366954 0.363990 2.145101 
-0.351702 0.355519 2.581574 
-0.360505 0.360819 2.362918 
-0.343623 0.341986 3.153668 
-0.345326 0.347709 2.957525 
-0.334519 0.351113 3.671275 
-0.339554 0.341335 3.480122 
-0.190957 0.450946 3.843267 
-0.167388 0.459522 0.194608 
-0.412891 0.266639 3.882747 
-0.421369 0.251413 0.144673 
-0.150570 0.461034 3.680921 
-0.458357 0.164367 3.737962 
-0.200978 0.436829 3.482630 
-0.436358 0.204936 3.488182 
-0.433869 0.223468 1.030688 
-0.220784 0.436192 1.031582 
-0.178020 0.449440 0.828454 
-0.449555 0.177857 0.827924 
-0.481431 0.193308 2.033201 
-0.196332 0.477529 2.033867 
-0.478097 0.151305 2.548403 
-0.147475 0.480137 2.547364 
-0.447829 0.193128 3.052704 
-0.191907 0.448636 3.050632 
-0.190017 0.444449 0.385584 
-0.440505 0.201472 0.371199 
-0.451600 0.168551 0.590755 
-0.172590 0.448677 0.592766 
-0.452260 0.197347 1.191387 
-0.192835 0.455754 1.192055 
-0.474131 0.184936 2.364553 
-0.186068 0.477135 2.362094 
-0.462723 0.194707 1.386583 
-0.190369 0.465082 1.387347 
-0.469222 0.194851 1.581867 
-0.193990 0.470154 1.584609 
-0.183468 0.480924 1.801983 
-0.482988 0.180092 1.800829 
-0.446500 0.211678 2.802013 
-0.208767 0.449732 2.798717 
-0.446935 0.183715 3.261843 
-0.184153 0.445831 3.259530 
-0.311849 0.379912 0.115297 
-0.311432 0.380826 3.894361 
-0.340917 0.339970 3.328927 
-0.345854 0.349223 1.114894 
-0.089292 0.472823 0.707821 
-0.474283 0.087253 0.706381 
-0.460554 0.229752 2.217214 
-0.233217 0.460567 2.215954 
-0.425183 0.273080 2.464856 
-0.270428 0.427567 2.464112 
-0.509595 0.091492 1.911086 
-0.095043 0.506730 1.911884 
-0.097102 0.484206 3.936703 
-0.478311 0.113510 0.087280 
-0.474268 0.113432 0.227155 
-0.090770 0.485077 0.072358 
-0.474956 0.127210 3.911903 
0.341258 0.337181 0.681696 
0.347683 0.345242 0.177101 
0.356429 0.359308 1.430135 
0.344534 0.344007 0.936393 
0.349397 0.349399 1.153747 
0.360671 0.360942 1.689158 
0.366332 0.364392 1.924321 
0.350155 0.351283 2.761399 
0.361631 0.361741 2.359706 
0.353672 0.354542 2.584349 
0.366829 0.365833 2.140694 
0.347938 0.348805 2.906728 
0.328874 0.350546 3.350390 
0.341572 0.340356 3.648984 
0.448437 0.197230 3.840988 
0.197445 0.448858 3.838441 
0.458637 0.155526 3.674432 
0.156893 0.458094 3.671792 
0.455292 0.167974 0.290688 
0.172330 0.453623 0.293957 
0.192647 0.467052 1.435245 
0.465451 0.195285 1.437077 
0.194500 0.478513 2.030874 
0.481507 0.193684 2.031329 
0.478312 0.151375 2.548064 
0.150796 0.479535 2.548052 
0.145402 0.467949 2.978511 
0.467226 0.146936 2.979148 
0.180487 0.446181 3.481321 
0.446522 0.177028 3.483845 
0.460814 0.192737 1.292022 
0.191295 0.461150 1.290342 
0.194426 0.471102 1.577765 
0.467316 0.195806 1.576108 
0.438083 0.204956 3.218326 
[...]
POINT_DATA 507
SCALARS u float 1
LOOKUP_TABLE default
0.007043
0.008244
0.009600
0.009288
0.007064
0.008297
0.009232
0.008853
0.006980
0.007240
0.007689
0.008587
0.009037
0.009348
0.009631
0.009523
0.009602
0.008523
0.007886
0.007465
0.007123
0.007298
0.007686
0.008656
0.008890
0.009212
0.009207
0.009097
0.009244
0.008303
0.007661
0.007255
0.006461
0.005352
0.004070
0.004278
0.006131
0.007957
0.008605
0.007408
0.004738
0.003322
0.005205
0.006901
0.007834
0.008180
0.005928
0.003833
0.003725
0.005259
0.006562
0.008586
0.006197
0.003880
0.004257
0.006662
0.007758
0.007800
0.006415
0.004848
0.004237
0.004881
0.006439
0.007790
0.008124
0.006344
0.004186
0.003780
0.005959
0.008389
0.007497
0.005775
0.004229
0.004221
0.005963
0.008150
0.008880
0.006639
0.004517
0.003943
0.005344
0.006770
0.007909
0.008141
0.005900
0.004138
0.004196
0.006010
0.007625
0.008406
0.006158
0.003902
0.004215
0.006367
0.007986
0.008212
0.006625
0.004599
0.004027
0.005007
0.006565
0.007554
0.007247
0.005915
0.003995
0.003766
0.006280
0.008250
0.003921
0.008182
0.007013
0.005756
0.005836
0.007730
0.004227
0.007757
0.006684
0.007959
0.004581
0.007073
0.003573
0.006604
0.008529
0.008002
0.006617
0.006468
0.007259
0.006805
0.007426
0.007571
0.004173
0.004082
0.007858
0.008047
0.005965
0.006314
0.004735
0.004521
0.003822
0.003923
0.004320
0.004520
0.004654
0.004373
0.006912
0.006813
0.007871
0.008170
0.007196
0.006585
0.004982
0.004997
0.006454
0.006939
0.008144
0.008062
0.005424
0.008752
0.004613
0.005246
0.005176
0.005335
0.004056
0.003936
0.009105
0.008263
0.007274
0.007582
0.009188
0.008449
0.004072
0.007173
0.004015
0.005935
0.006952
0.007499
0.006517
0.004270
0.007110
0.007609
0.006876
0.004026
0.006299
0.003679
0.007022
0.003756
0.008135
0.008457
0.008537
0.008815
0.004648
0.004757
0.004402
0.004393
0.004202
0.004123
0.007765
0.007476
0.006227
0.006467
0.006012
0.006127
0.006088
0.005494
0.003999
0.003907
0.003300
0.003522
0.004964
0.004825
0.006407
0.006635
0.007970
0.007854
0.007007
0.006885
0.005206
0.005092
0.007362
0.007674
0.008705
0.009067
0.005045
0.006324
0.006116
0.005316
0.005230
0.008863
0.009275
0.007331
0.007460
0.007517
0.007984
0.008860
0.009169
0.003800
0.004193
0.006298
0.008218
0.006383
0.005504
0.008180
0.008163
0.003794
0.004493
0.008599
0.006696
0.004333
0.006441
0.005978
0.004526
0.006930
0.006766
0.007657
0.007725
0.005649
0.006988
0.004405
0.004798
0.006368
0.006465
0.004420
0.004342
0.003891
0.003358
0.007951
0.008163
0.004972
0.005302
0.005293
0.005991
0.003927
0.004031
0.007691
0.007779
0.006639
0.007310
0.008357
0.008508
0.007129
0.007693
0.005134
0.005049
0.007597
0.008199
0.003522
0.003840
0.007504
0.007348
0.003782
0.007248
0.003933
0.003666
0.005047
0.005431
0.007634
0.007809
0.004023
0.003686
0.006994
0.008574
0.007605
0.007034
0.008309
0.004177
0.006701
0.009129
0.005389
0.007609
0.006451
0.003750
0.007843
0.007230
0.008110
0.005090
0.006552
0.003923
0.006054
0.007217
0.006697
0.006058
0.005612
0.006398
0.005802
0.008556
0.008924
0.003443
0.003935
0.008053
0.008057
0.006114
0.005998
0.004213
0.004647
0.008660
0.008315
0.007930
0.007485
0.003991
0.003916
0.004700
0.004502
0.004188
0.004291
0.006244
0.006566
0.005147
0.004853
0.007113
0.007117
0.007994
0.007911
0.005228
0.007237
0.004630
0.005136
0.006044
0.005938
0.003632
0.003857
0.005197
0.004970
0.007879
0.006810
0.007711
0.007719
0.007621
0.006915
0.010278
0.009292
0.009821
0.009524
0.009745
0.009025
0.010216
0.010186
0.009019
0.010013
0.009675
0.009197
0.008483
0.008977
0.009667
0.009955
0.008480
0.010098
0.009903
0.009921
0.010193
0.009855
0.009343
0.008117
0.009386
0.010195
0.009633
0.010252
0.008893
0.009639
0.008821
0.010441
0.010092
0.009120
0.009682
0.009163
0.008412
0.010313
0.008177
0.009079
0.010308
0.009920
0.009656
0.009920
0.010174
0.010195
0.010233
0.007974
0.009215
0.009632
0.003923
0.009268
0.008226
0.008901
0.008585
0.006043
0.008251
0.008215
0.007486
0.005557
0.008795
0.006195
0.008639
0.006196
0.008907
0.006271
0.005452
0.003273
0.008781
0.008908
0.004691
0.003981
0.009005
0.003095
0.005470
0.008022
0.008051
0.009666
0.009783
0.009622
0.008032
0.002349
0.003237
0.002324
0.002635
0.005536
0.003001
0.005575
0.005441
0.002585
0.005262
0.005510
0.005441
0.008196
0.003018
0.008348
0.008717
0.009035
0.006361
0.005837
0.003648
0.003358
0.009598
0.007536
0.004830
0.004835
0.002158
0.004925
0.002047
0.002544
0.006358
0.006049
0.005459
0.007944
0.006448
0.006393
0.003362
0.008960
0.008823
0.008765
0.008896
0.009040
0.005945
0.005780
0.005650
0.006102
0.009960
0.005687
0.008471
0.005412
0.005385
0.003011
0.007966
0.003486
0.008221
0.008390
0.009275
0.009972
0.006062
