# vtk DataFile Version 2.0
Unstructured Grid Example
ASCII
DATASET UNSTRUCTURED_GRID
POINTS 507 float
0.000215 0.498710 -0.021728 
0.497270 0.000911 -0.025316 
0.000517 -0.496493 -0.029460 
-0.496182 0.000351 -0.028449 
-0.000013 0.499081 4.021815 
0.497270 0.000791 4.025487 
-0.000089 -0.497139 4.028391 
-0.496669 0.000642 4.027151 
0.190679 0.461372 -0.021557 
0.351941 0.353159 -0.022315 
0.459881 0.191628 -0.023674 
0.460015 -0.189390 -0.026398 
0.352072 -0.350552 -0.027730 
0.190999 -0.458989 -0.028740 
-0.189788 -0.459002 -0.029582 
-0.350699 -0.351664 -0.029235 
-0.458361 -0.190203 -0.029440 
-0.458763 0.191092 -0.026151 
-0.351540 0.352401 -0.024264 
-0.190097 0.460671 -0.023004 
0.190467 0.461206 4.021985 
0.352031 0.353306 4.022504 
0.459652 0.191621 4.023645 
0.459389 -0.189596 4.026574 
0.351878 -0.351380 4.027339 
0.190368 -0.459242 4.028327 
-0.190259 -0.459477 4.028330 
-0.351152 -0.352001 4.027972 
-0.458783 -0.190303 4.028377 
-0.459004 0.191444 4.025495 
-0.351647 0.352826 4.023589 
-0.190362 0.460894 4.022377 
-0.000323 0.494255 0.180877 
-0.000805 0.489158 0.387534 
-0.000420 0.487683 0.597475 
0.000182 0.489358 0.807845 
0.000408 0.493222 1.017691 
0.001079 0.498304 1.224511 
0.000417 0.503266 1.426391 
0.000124 0.506619 1.621918 
-0.000577 0.508990 1.811545 
-0.000707 0.510242 2.000095 
-0.000168 0.510681 2.187970 
0.000616 0.507048 2.379879 
0.001005 0.501338 2.575844 
0.000584 0.497871 2.774814 
-0.000653 0.494023 2.982691 
0.000164 0.490130 3.193452 
-0.000164 0.488658 3.401971 
-0.000125 0.488957 3.611927 
-0.000201 0.493795 3.819307 
0.000049 -0.494659 0.174007 
-0.000547 -0.491603 0.382794 
-0.000467 -0.489050 0.595132 
-0.000237 -0.489215 0.807533 
0.000115 -0.490524 1.018281 
0.000173 -0.495069 1.223465 
0.000462 -0.500805 1.424090 
0.000046 -0.506657 1.618676 
-0.000159 -0.510943 1.810233 
0.000082 -0.513091 1.999656 
0.000022 -0.510543 2.189208 
0.000162 -0.505384 2.380839 
0.000294 -0.498839 2.575953 
0.000311 -0.495065 2.775382 
0.000363 -0.491434 2.982365 
0.000035 -0.489455 3.192506 
-0.000056 -0.489241 3.404553 
-0.000414 -0.491348 3.616254 
-0.000215 -0.494534 3.825344 
0.493891 -0.000580 0.177654 
0.489985 -0.001853 0.385344 
0.487548 -0.001443 0.596301 
0.489473 -0.000310 0.807701 
0.493702 0.000606 1.017312 
0.497852 0.002385 1.224983 
0.502475 0.000667 1.427325 
0.505349 -0.000232 1.619808 
0.509324 -0.001245 1.810316 
0.512070 -0.001605 1.999486 
0.511035 -0.000873 2.187741 
0.506630 0.000815 2.380169 
0.500871 0.001428 2.575612 
0.496748 0.000866 2.775065 
0.493559 -0.000075 2.982940 
0.489869 -0.000681 3.192225 
0.487618 -0.001329 3.403619 
0.489443 -0.001226 3.615235 
0.493467 -0.000347 3.822642 
-0.493939 -0.001238 0.174767 
-0.490682 -0.001982 0.383522 
-0.488866 -0.001544 0.595628 
-0.489334 0.000018 0.807482 
-0.491940 0.001595 1.017883 
-0.496396 0.002031 1.224333 
-0.501555 0.001082 1.425310 
-0.506389 -0.000342 1.619452 
-0.509745 -0.001323 1.810263 
-0.512303 -0.001865 1.999673 
-0.510623 -0.001282 2.188822 
-0.506239 -0.000336 2.380694 
-0.500418 0.001585 2.576710 
-0.497554 0.001737 2.777804 
-0.492625 0.001855 2.983374 
-0.489769 -0.000060 3.193089 
-0.489393 -0.001294 3.404613 
-0.490058 -0.001981 3.616552 
-0.493391 -0.000697 3.824619 
0.343483 -0.346516 0.681106 
0.348084 -0.351089 0.184064 
0.355690 -0.354897 1.499305 
0.346613 -0.346549 0.948344 
0.359259 -0.359881 1.695147 
0.353222 -0.350468 1.234802 
0.361349 -0.363203 1.925124 
0.350559 -0.349367 2.776585 
0.358726 -0.357476 2.373988 
0.353919 -0.351486 2.599965 
0.360769 -0.361953 2.150786 
0.348955 -0.348620 2.917516 
0.357352 -0.333999 3.352472 
0.346112 -0.348108 3.643108 
0.198560 -0.452474 3.832418 
0.451656 -0.199702 3.830672 
0.158900 -0.466042 3.667911 
0.463962 -0.160219 3.666663 
0.171539 -0.461527 0.297573 
0.458949 -0.176148 0.299382 
0.190859 -0.458233 1.225425 
0.460378 -0.188530 1.225956 
0.192803 -0.475007 2.034470 
0.473833 -0.194611 2.034268 
0.149519 -0.476392 2.563565 
0.479064 -0.147350 2.563032 
0.470307 -0.148276 2.989910 
0.148132 -0.468740 2.989416 
0.452887 -0.183719 3.481362 
0.182120 -0.454575 3.481575 
0.208320 -0.443035 3.223823 
0.461362 -0.161578 3.248304 
0.450261 -0.190844 0.538285 
0.186008 -0.452272 0.537540 
0.461325 -0.160159 0.807461 
0.158878 -0.462459 0.806945 
0.458068 -0.182810 1.077938 
0.184311 -0.456591 1.077381 
0.192265 -0.461010 1.372905 
0.463429 -0.190077 1.373786 
0.466878 -0.193809 1.572084 
0.193512 -0.466084 1.570349 
0.180315 -0.478009 1.793347 
0.476695 -0.181472 1.794117 
0.185635 -0.470599 2.377012 
0.472156 -0.184307 2.375777 
0.189729 -0.456676 2.774928 
0.458510 -0.188854 2.774936 
0.341199 -0.351634 0.443801 
0.349613 -0.350165 3.893083 
0.369062 -0.322568 3.134052 
0.275737 -0.406604 3.066092 
0.229089 -0.455611 2.224730 
0.455380 -0.229792 2.224194 
0.093065 -0.503294 1.906992 
0.502242 -0.094364 1.907766 
0.099011 -0.485413 3.929445 
0.485096 -0.099147 3.926751 
0.271540 -0.422811 2.480020 
0.425041 -0.269656 2.479183 
0.186702 -0.459025 0.093184 
0.458359 -0.187397 0.095550 
-0.345801 -0.345797 0.776728 
-0.358485 -0.337591 0.309797 
-0.345281 -0.346254 0.583408 
-0.359388 -0.360142 1.696003 
-0.355909 -0.355611 1.509685 
-0.351839 -0.349878 1.255874 
-0.347677 -0.346076 1.017655 
-0.361257 -0.362968 1.903068 
-0.351835 -0.350289 2.778335 
-0.353931 -0.352178 2.586943 
-0.357136 -0.356101 2.430333 
-0.361010 -0.362605 2.067440 
-0.348161 -0.347232 2.971978 
-0.345780 -0.346239 3.261011 
-0.358149 -0.337359 3.689169 
-0.345861 -0.346605 3.422995 
-0.463797 -0.168467 3.796707 
-0.463902 -0.168839 0.201588 
-0.249189 -0.427123 3.836584 
-0.254997 -0.424021 0.155715 
-0.212017 -0.465129 2.164209 
-0.464449 -0.213467 2.163748 
-0.145738 -0.467055 0.818225 
-0.467058 -0.145270 0.818007 
-0.169191 -0.484265 1.988838 
-0.483290 -0.171014 1.988818 
-0.176658 -0.466217 2.570444 
-0.468068 -0.175034 2.571325 
-0.454979 -0.187110 2.978917 
-0.188072 -0.454022 2.978296 
-0.452052 -0.192328 0.388998 
-0.209982 -0.444598 0.383606 
-0.451409 -0.191863 3.607170 
-0.180426 -0.456647 3.583867 
-0.451134 -0.188476 0.590540 
-0.187462 -0.451759 0.590698 
-0.453092 -0.186193 3.340308 
-0.183256 -0.453507 3.336492 
-0.186725 -0.453001 3.119519 
-0.453186 -0.186822 3.120515 
-0.457556 -0.178180 1.018623 
-0.179993 -0.456197 1.019169 
-0.455676 -0.204736 1.353747 
-0.206283 -0.454573 1.353446 
-0.467066 -0.194031 1.571605 
-0.193897 -0.467148 1.571211 
-0.190281 -0.473232 1.765390 
-0.471994 -0.191557 1.765431 
-0.460590 -0.188915 2.777415 
-0.190360 -0.458824 2.776506 
-0.382542 -0.313667 3.873483 
-0.382392 -0.313869 0.125028 
-0.360063 -0.360798 2.234282 
-0.478353 -0.167487 2.362429 
-0.167329 -0.477544 2.362823 
-0.264024 -0.412519 0.906471 
-0.413261 -0.263104 0.906219 
-0.112563 -0.482599 3.894879 
-0.115190 -0.481740 0.100994 
-0.440563 -0.223943 1.174454 
-0.226044 -0.438694 1.174748 
-0.110171 -0.481016 3.750762 
-0.117943 -0.479051 0.240163 
-0.486376 -0.091402 3.920011 
-0.486222 -0.091581 0.078886 
-0.346223 0.344716 0.706173 
-0.346788 0.344041 0.559359 
-0.337248 0.357084 0.309229 
-0.355637 0.356889 1.490141 
-0.359558 0.358653 1.693995 
-0.346767 0.347807 0.926009 
-0.351981 0.354620 1.283242 
-0.351454 0.353188 2.774860 
-0.361938 0.360018 1.925284 
-0.361922 0.360071 2.150489 
-0.352397 0.354781 2.597521 
-0.357895 0.358091 2.374774 
-0.347352 0.346329 3.159331 
-0.348415 0.349903 2.968878 
-0.338034 0.355565 3.661722 
-0.343912 0.346816 3.475461 
-0.192253 0.454593 3.830984 
-0.168341 0.463547 0.206482 
-0.415525 0.268442 3.868881 
-0.424077 0.253707 0.158583 
-0.152154 0.466442 3.672064 
-0.462695 0.166796 3.725965 
-0.203521 0.443576 3.478754 
-0.442033 0.208670 3.482406 
-0.438238 0.224792 1.019770 
-0.223116 0.439688 1.020328 
-0.180122 0.455306 0.823104 
-0.455378 0.180021 0.822773 
-0.474536 0.191539 2.034466 
-0.193428 0.472098 2.034882 
-0.477837 0.150294 2.563142 
-0.147903 0.479111 2.562493 
-0.452322 0.194373 3.060682 
-0.193494 0.452875 3.059382 
-0.191608 0.450560 0.393126 
-0.445231 0.205216 0.380558 
-0.457524 0.171966 0.593302 
-0.174489 0.455699 0.594558 
-0.454939 0.197356 1.177347 
-0.194539 0.457121 1.177765 
-0.470823 0.184194 2.376416 
-0.184902 0.472700 2.374881 
-0.462429 0.193444 1.371109 
-0.190734 0.463902 1.371585 
-0.466488 0.193533 1.568972 
-0.192996 0.467070 1.570684 
-0.180969 0.475956 1.794232 
-0.477245 0.178861 1.793511 
-0.448914 0.211720 2.815923 
-0.209885 0.450940 2.813864 
-0.452622 0.186452 3.263578 
-0.186037 0.452215 3.262102 
-0.313609 0.382591 0.128868 
-0.313278 0.383219 3.881045 
-0.345158 0.345572 3.329050 
-0.348745 0.350849 1.101839 
-0.090265 0.479830 0.705987 
-0.480742 0.088991 0.705088 
-0.455310 0.227913 2.224768 
-0.230077 0.455318 2.223981 
-0.423760 0.271595 2.478893 
-0.269939 0.425248 2.478428 
-0.502860 0.091290 1.907846 
-0.093508 0.501071 1.908344 
-0.097574 0.486468 3.923912 
-0.481303 0.114569 0.102894 
-0.478536 0.115521 0.240464 
-0.091197 0.487481 0.085199 
-0.477969 0.128013 3.896781 
0.346261 0.342941 0.680270 
0.350277 0.347972 0.188971 
0.355349 0.357147 1.413344 
0.348001 0.347511 0.927676 
0.350957 0.350959 1.139780 
0.357998 0.358168 1.677806 
0.361534 0.360323 1.921325 
0.351431 0.352135 2.775893 
0.358598 0.358667 2.372429 
0.353628 0.354171 2.599415 
0.361844 0.361222 2.147280 
0.350046 0.350588 2.918587 
0.333355 0.356295 3.350493 
0.346071 0.345311 3.639940 
0.451866 0.198861 3.828124 
0.198995 0.452129 3.826533 
0.464046 0.157942 3.664859 
0.158795 0.463707 3.663211 
0.460211 0.170595 0.301191 
0.174329 0.458787 0.303208 
0.192157 0.465133 1.419469 
0.464133 0.193804 1.420613 
0.192284 0.472713 2.032418 
0.474583 0.191775 2.032702 
0.477971 0.150338 2.562989 
0.149977 0.478735 2.562981 
0.147185 0.471318 2.989215 
0.470867 0.148143 2.989613 
0.182742 0.452841 3.477878 
0.453054 0.180582 3.479455 
0.461237 0.192213 1.275943 
0.191313 0.461447 1.274893 
0.193268 0.467662 1.563482 
0.465297 0.194130 1.562448 
0.443463 0.207938 3.222471 
[...]
POINT_DATA 507
SCALARS u float 1
LOOKUP_TABLE default
0.007043
0.008244
0.009600
0.009288
0.007064
0.008297
0.009232
0.008853
0.006980
0.007240
0.007689
0.008587
0.009037
0.009348
0.009631
0.009523
0.009602
0.008523
0.007886
0.007465
0.007123
0.007298
0.007686
0.008656
0.008890
0.009212
0.009207
0.009097
0.009244
0.008303
0.007661
0.007255
0.006461
0.005352
0.004070
0.004278
0.006131
0.007957
0.008605
0.007408
0.004738
0.003322
0.005205
0.006901
0.007834
0.008180
0.005928
0.003833
0.003725
0.005259
0.006562
0.008586
0.006197
0.003880
0.004257
0.006662
0.007758
0.007800
0.006415
0.004848
0.004237
0.004881
0.006439
0.007790
0.008124
0.006344
0.004186
0.003780
0.005959
0.008389
0.007497
0.005775
0.004229
0.004221
0.005963
0.008150
0.008880
0.006639
0.004517
0.003943
0.005344
0.006770
0.007909
0.008141
0.005900
0.004138
0.004196
0.006010
0.007625
0.008406
0.006158
0.003902
0.004215
0.006367
0.007986
0.008212
0.006625
0.004599
0.004027
0.005007
0.006565
0.007554
0.007247
0.005915
0.003995
0.003766
0.006280
0.008250
0.003921
0.008182
0.007013
0.005756
0.005836
0.007730
0.004227
0.007757
0.006684
0.007959
0.004581
0.007073
0.003573
0.006604
0.008529
0.008002
0.006617
0.006468
0.007259
0.006805
0.007426
0.007571
0.004173
0.004082
0.007858
0.008047
0.005965
0.006314
0.004735
0.004521
0.003822
0.003923
0.004320
0.004520
0.004654
0.004373
0.006912
0.006813
0.007871
0.008170
0.007196
0.006585
0.004982
0.004997
0.006454
0.006939
0.008144
0.008062
0.005424
0.008752
0.004613
0.005246
0.005176
0.005335
0.004056
0.003936
0.009105
0.008263
0.007274
0.007582
0.009188
0.008449
0.004072
0.007173
0.004015
0.005935
0.006952
0.007499
0.006517
0.004270
0.007110
0.007609
0.006876
0.004026
0.006299
0.003679
0.007022
0.003756
0.008135
0.008457
0.008537
0.008815
0.004648
0.004757
0.004402
0.004393
0.004202
0.004123
0.007765
0.007476
0.006227
0.006467
0.006012
0.006127
0.006088
0.005494
0.003999
0.003907
0.003300
0.003522
0.004964
0.004825
0.006407
0.006635
0.007970
0.007854
0.007007
0.006885
0.005206
0.005092
0.007362
0.007674
0.008705
0.009067
0.005045
0.006324
0.006116
0.005316
0.005230
0.008863
0.009275
0.007331
0.007460
0.007517
0.007984
0.008860
0.009169
0.003800
0.004193
0.006298
0.008218
0.006383
0.005504
0.008180
0.008163
0.003794
0.004493
0.008599
0.006696
0.004333
0.006441
0.005978
0.004526
0.006930
0.006766
0.007657
0.007725
0.005649
0.006988
0.004405
0.004798
0.006368
0.006465
0.004420
0.004342
0.003891
0.003358
0.007951
0.008163
0.004972
0.005302
0.005293
0.005991
0.003927
0.004031
0.007691
0.007779
0.006639
0.007310
0.008357
0.008508
0.007129
0.007693
0.005134
0.005049
0.007597
0.008199
0.003522
0.003840
0.007504
0.007348
0.003782
0.007248
0.003933
0.003666
0.005047
0.005431
0.007634
0.007809
0.004023
0.003686
0.006994
0.008574
0.007605
0.007034
0.008309
0.004177
0.006701
0.009129
0.005389
0.007609
0.006451
0.003750
0.007843
0.007230
0.008110
0.005090
0.006552
0.003923
0.006054
0.007217
0.006697
0.006058
0.005612
0.006398
0.005802
0.008556
0.008924
0.003443
0.003935
0.008053
0.008057
0.006114
0.005998
0.004213
0.004647
0.008660
0.008315
0.007930
0.007485
0.003991
0.003916
0.004700
0.004502
0.004188
0.004291
0.006244
0.006566
0.005147
0.004853
0.007113
0.007117
0.007994
0.007911
0.005228
0.007237
0.004630
0.005136
0.006044
0.005938
0.003632
0.003857
0.005197
0.004970
0.007879
0.006810
0.007711
0.007719
0.007621
0.006915
0.010278
0.009292
0.009821
0.009524
0.009745
0.009025
0.010216
0.010186
0.009019
0.010013
0.009675
0.009197
0.008483
0.008977
0.009667
0.009955
0.008480
0.010098
0.009903
0.009921
0.010193
0.009855
0.009343
0.008117
0.009386
0.010195
0.009633
0.010252
0.008893
0.009639
0.008821
0.010441
0.010092
0.009120
0.009682
0.009163
0.008412
0.010313
0.008177
0.009079
0.010308
0.009920
0.009656
0.009920
0.010174
0.010195
0.010233
0.007974
0.009215
0.009632
0.003923
0.009268
0.008226
0.008901
0.008585
0.006043
0.008251
0.008215
0.007486
0.005557
0.008795
0.006195
0.008639
0.006196
0.008907
0.006271
0.005452
0.003273
0.008781
0.008908
0.004691
0.003981
0.009005
0.003095
0.005470
0.008022
0.008051
0.009666
0.009783
0.009622
0.008032
0.002349
0.003237
0.002324
0.002635
0.005536
0.003001
0.005575
0.005441
0.002585
0.005262
0.005510
0.005441
0.008196
0.003018
0.008348
0.008717
0.009035
0.006361
0.005837
0.003648
0.003358
0.009598
0.007536
0.004830
0.004835
0.002158
0.004925
0.002047
0.002544
0.006358
0.006049
0.005459
0.007944
0.006448
0.006393
0.003362
0.008960
0.008823
0.008765
0.008896
0.009040
0.005945
0.005780
0.005650
0.006102
0.009960
0.005687
0.008471
0.005412
0.005385
0.003011
0.007966
0.003486
0.008221
0.008390
0.009275
0.009972
0.006062
