# vtk DataFile Version 2.0
Unstructured Grid Example
ASCII
DATASET UNSTRUCTURED_GRID
POINTS 507 float
0.000328 0.498029 -0.033216 
0.495826 0.001392 -0.038701 
0.000790 -0.494638 -0.045037 
-0.494164 0.000537 -0.043490 
-0.000020 0.498594 4.033349 
0.495827 0.001209 4.038963 
-0.000136 -0.495626 4.043402 
-0.494907 0.000982 4.041506 
0.190329 0.461072 -0.032955 
0.351088 0.352951 -0.034113 
0.458792 0.191779 -0.036192 
0.458997 -0.188359 -0.040355 
0.351288 -0.348965 -0.042391 
0.190817 -0.457429 -0.043936 
-0.188967 -0.457449 -0.045224 
-0.349191 -0.350665 -0.044693 
-0.456469 -0.189602 -0.045007 
-0.457083 0.190960 -0.039978 
-0.350475 0.351792 -0.037093 
-0.189439 0.460000 -0.035167 
0.190004 0.460819 4.033609 
0.351227 0.353175 4.034403 
0.458442 0.191769 4.036147 
0.458040 -0.188672 4.040624 
0.350992 -0.350230 4.041795 
0.189853 -0.457816 4.043305 
-0.189687 -0.458174 4.043309 
-0.349882 -0.351180 4.042762 
-0.457114 -0.189754 4.043381 
-0.457452 0.191498 4.038975 
-0.350638 0.352441 4.036062 
-0.189844 0.460341 4.034209 
-0.000493 0.491217 0.170767 
-0.001231 0.483425 0.380942 
-0.000641 0.481171 0.596140 
0.000278 0.483731 0.811993 
0.000624 0.489638 1.027045 
0.001649 0.497407 1.237471 
0.000637 0.504993 1.440345 
0.000190 0.510119 1.633507 
-0.000881 0.513743 1.817649 
-0.001080 0.515657 2.000146 
-0.000256 0.516328 2.181610 
0.000941 0.510774 2.369240 
0.001536 0.502045 2.563071 
0.000893 0.496745 2.761498 
-0.000998 0.490862 2.973539 
0.000251 0.484911 3.189990 
-0.000250 0.482661 3.403013 
-0.000190 0.483118 3.618233 
-0.000307 0.490514 3.829516 
0.000074 -0.491834 0.160263 
-0.000837 -0.487163 0.373696 
-0.000715 -0.483261 0.592559 
-0.000362 -0.483513 0.811516 
0.000176 -0.485513 1.027947 
0.000265 -0.492462 1.235872 
0.000707 -0.501230 1.436828 
0.000070 -0.510177 1.628550 
-0.000242 -0.516728 1.815644 
0.000126 -0.520013 1.999474 
0.000034 -0.516117 2.183502 
0.000248 -0.508230 2.370709 
0.000450 -0.498224 2.563238 
0.000475 -0.492455 2.762366 
0.000555 -0.486905 2.973040 
0.000053 -0.483879 3.188544 
-0.000086 -0.483553 3.406960 
-0.000633 -0.486773 3.624848 
-0.000329 -0.491644 3.838744 
0.490662 -0.000886 0.165839 
0.484689 -0.002833 0.377594 
0.480964 -0.002206 0.594345 
0.483907 -0.000474 0.811772 
0.490372 0.000927 1.026465 
0.496717 0.003646 1.238193 
0.503784 0.001019 1.441773 
0.508178 -0.000355 1.630282 
0.514254 -0.001904 1.815770 
0.518452 -0.002453 1.999214 
0.516870 -0.001335 2.181260 
0.510135 0.001246 2.369684 
0.501332 0.002182 2.562718 
0.495029 0.001324 2.761881 
0.490154 -0.000115 2.973919 
0.484513 -0.001041 3.188114 
0.481071 -0.002031 3.405533 
0.483861 -0.001875 3.623290 
0.490013 -0.000530 3.834614 
-0.490734 -0.001893 0.161426 
-0.485755 -0.003029 0.374809 
-0.482980 -0.002360 0.593316 
-0.483694 0.000028 0.811437 
-0.487678 0.002438 1.027338 
-0.494491 0.003105 1.237199 
-0.502378 0.001654 1.438692 
-0.509767 -0.000523 1.629736 
-0.514897 -0.002022 1.815690 
-0.518808 -0.002851 1.999500 
-0.516241 -0.001960 2.182912 
-0.509538 -0.000513 2.370486 
-0.500639 0.002423 2.564397 
-0.496261 0.002655 2.766068 
-0.488725 0.002836 2.974584 
-0.484360 -0.000092 3.189435 
-0.483785 -0.001978 3.407052 
-0.484802 -0.003029 3.625304 
-0.489897 -0.001065 3.837636 
0.338704 -0.342250 0.681273 
0.345742 -0.349237 0.171030 
0.356819 -0.355607 1.510688 
0.343057 -0.342731 0.956172 
0.362276 -0.363226 1.703553 
0.353046 -0.348836 1.247328 
0.365471 -0.368305 1.927291 
0.348976 -0.347154 2.764205 
0.361461 -0.359550 2.363618 
0.354112 -0.350393 2.587007 
0.364584 -0.366394 2.146120 
0.346524 -0.346012 2.906521 
0.352855 -0.330399 3.353428 
0.342178 -0.345229 3.652736 
0.196967 -0.449780 3.846001 
0.448530 -0.198713 3.843332 
0.157283 -0.462341 3.677943 
0.459161 -0.159299 3.676034 
0.169733 -0.457897 0.286424 
0.454494 -0.175352 0.289224 
0.190604 -0.456274 1.237399 
0.459553 -0.187044 1.238211 
0.195026 -0.481320 2.033165 
0.479526 -0.197790 2.032857 
0.149998 -0.475857 2.550743 
0.479942 -0.146682 2.549928 
0.466809 -0.147285 2.980865 
0.147065 -0.464414 2.980110 
0.447055 -0.182252 3.486231 
0.179807 -0.449634 3.486558 
0.205900 -0.438077 3.220891 
0.455628 -0.160094 3.245848 
0.444575 -0.189409 0.534355 
0.183241 -0.447138 0.533008 
0.455421 -0.158360 0.811906 
0.156850 -0.456999 0.811086 
0.455040 -0.180700 1.088613 
0.183116 -0.452732 1.087756 
0.192753 -0.460519 1.385750 
0.464216 -0.189408 1.387097 
0.469489 -0.195114 1.583476 
0.194659 -0.468276 1.580823 
0.182167 -0.483463 1.799102 
0.481454 -0.183935 1.800279 
0.187048 -0.473389 2.366940 
0.475769 -0.185018 2.365052 
0.188876 -0.453893 2.761941 
0.456697 -0.187539 2.761954 
0.336896 -0.348416 0.436752 
0.347529 -0.348373 3.907119 
0.364991 -0.319322 3.128601 
0.273149 -0.402789 3.058863 
0.231329 -0.460382 2.218114 
0.460028 -0.232403 2.217295 
0.094181 -0.509447 1.909190 
0.507839 -0.096167 1.910373 
0.098344 -0.483071 3.944125 
0.482587 -0.098553 3.940006 
0.272817 -0.423561 2.468225 
0.426970 -0.269936 2.466947 
0.185804 -0.456846 0.078355 
0.456022 -0.186391 0.081979 
-0.341701 -0.341696 0.779992 
-0.355266 -0.335165 0.298789 
-0.340907 -0.342395 0.580405 
-0.362473 -0.363625 1.704513 
-0.357155 -0.356699 1.520925 
-0.350933 -0.347934 1.267939 
-0.344570 -0.342122 1.027043 
-0.365330 -0.367946 1.905775 
-0.350926 -0.348563 2.766880 
-0.354130 -0.351451 2.574532 
-0.359030 -0.357449 2.419340 
-0.364952 -0.367390 2.065237 
-0.345310 -0.343889 2.962669 
-0.341670 -0.342371 3.258938 
-0.354753 -0.334810 3.699829 
-0.341794 -0.342931 3.425759 
-0.460387 -0.167706 3.809534 
-0.460551 -0.168265 0.188193 
-0.247386 -0.424808 3.850224 
-0.253288 -0.421834 0.141579 
-0.214329 -0.470567 2.159436 
-0.469528 -0.216545 2.158731 
-0.144188 -0.461593 0.822642 
-0.461598 -0.143473 0.822308 
-0.171176 -0.490837 1.989043 
-0.489346 -0.173962 1.989012 
-0.176781 -0.465359 2.557785 
-0.468189 -0.174299 2.559131 
-0.451299 -0.184873 2.969698 
-0.186343 -0.449836 2.968748 
-0.447467 -0.191311 0.380368 
-0.208003 -0.440675 0.374610 
-0.446484 -0.190599 3.615721 
-0.178638 -0.452236 3.591481 
-0.445501 -0.186769 0.587700 
-0.185218 -0.446456 0.587942 
-0.447985 -0.184511 3.340723 
-0.180943 -0.448245 3.336786 
-0.184610 -0.448140 3.113378 
-0.448486 -0.184606 3.114585 
-0.453452 -0.175645 1.027916 
-0.178416 -0.451374 1.028751 
-0.455862 -0.203754 1.366734 
-0.206120 -0.454177 1.366274 
-0.469777 -0.195453 1.582639 
-0.195248 -0.469902 1.582036 
-0.191982 -0.478278 1.772025 
-0.476385 -0.193934 1.772087 
-0.459877 -0.187631 2.765474 
-0.189841 -0.457176 2.764084 
-0.380112 -0.312209 3.887423 
-0.379931 -0.312460 0.110485 
-0.363505 -0.364629 2.227843 
-0.481787 -0.168605 2.352745 
-0.168363 -0.480550 2.353348 
-0.261319 -0.407832 0.913268 
-0.408966 -0.259913 0.912884 
-0.111942 -0.480329 3.909169 
-0.114437 -0.479376 0.086041 
-0.438317 -0.221613 1.185989 
-0.224825 -0.435460 1.186439 
-0.109411 -0.477649 3.762552 
-0.117060 -0.475651 0.227597 
-0.483677 -0.091138 3.934233 
-0.483441 -0.091408 0.064163 
-0.342347 0.340043 0.707478 
-0.343211 0.339012 0.556382 
-0.334640 0.353125 0.300094 
-0.356739 0.358653 1.503410 
-0.362733 0.361349 1.703559 
-0.343179 0.344769 0.933676 
-0.351150 0.355183 1.296573 
-0.350345 0.352995 2.761568 
-0.366372 0.363436 1.927949 
-0.366347 0.363518 2.145751 
-0.351786 0.355430 2.583497 
-0.360190 0.360490 2.364348 
-0.344073 0.342510 3.154351 
-0.345699 0.347973 2.958894 
-0.334943 0.351650 3.670123 
-0.340080 0.341996 3.479560 
-0.191114 0.451386 3.841785 
-0.167503 0.460008 0.196040 
-0.413209 0.266857 3.881075 
-0.421695 0.251689 0.146350 
-0.150761 0.461686 3.679853 
-0.458880 0.164660 3.736515 
-0.201285 0.437643 3.482162 
-0.437043 0.205386 3.487485 
-0.434396 0.223627 1.029371 
-0.221066 0.436614 1.030225 
-0.178273 0.450147 0.827809 
-0.450257 0.178118 0.827303 
-0.480600 0.193095 2.033353 
-0.195981 0.476874 2.033990 
-0.478066 0.151183 2.550180 
-0.147527 0.480013 2.549188 
-0.448371 0.193278 3.053666 
-0.192098 0.449147 3.051687 
-0.190209 0.445186 0.386493 
-0.441075 0.201923 0.372328 
-0.452315 0.168963 0.591062 
-0.172819 0.449523 0.592982 
-0.452583 0.197348 1.189694 
-0.193041 0.455919 1.190332 
-0.473732 0.184846 2.365983 
-0.185928 0.476600 2.363636 
-0.462687 0.194555 1.384717 
-0.190413 0.464940 1.385446 
-0.468892 0.194692 1.580312 
-0.193870 0.469782 1.582929 
-0.183166 0.480325 1.801048 
-0.482295 0.179944 1.799947 
-0.446791 0.211683 2.803691 
-0.208901 0.449877 2.800544 
-0.447621 0.184045 3.262052 
-0.184381 0.446601 3.259840 
-0.312061 0.380235 0.116934 
-0.311654 0.381115 3.892755 
-0.341428 0.340646 3.328941 
-0.346203 0.349419 1.113320 
-0.089409 0.473668 0.707600 
-0.475062 0.087462 0.706225 
-0.459922 0.229531 2.218125 
-0.232838 0.459934 2.216922 
-0.425011 0.272901 2.466549 
-0.270369 0.427287 2.465839 
-0.508783 0.091468 1.910695 
-0.094858 0.506048 1.911458 
-0.097159 0.484479 3.935161 
-0.478672 0.113638 0.089163 
-0.474782 0.113684 0.228760 
-0.090821 0.485367 0.073907 
-0.475319 0.127307 3.910080 
0.341861 0.337876 0.681524 
0.347996 0.345571 0.178532 
0.356298 0.359047 1.428110 
0.344952 0.344430 0.935342 
0.349585 0.349587 1.152062 
0.360348 0.360608 1.687789 
0.365754 0.363902 1.923960 
0.350309 0.351386 2.763147 
0.361265 0.361371 2.361240 
0.353667 0.354498 2.586166 
0.366228 0.365277 2.141488 
0.348192 0.349020 2.908158 
0.329415 0.351239 3.350402 
0.342114 0.340953 3.647893 
0.448851 0.197427 3.839436 
0.197632 0.449253 3.837005 
0.459290 0.155818 3.673277 
0.157122 0.458771 3.670757 
0.455885 0.168290 0.291955 
0.172571 0.454246 0.295073 
0.192588 0.466821 1.433343 
0.465292 0.195106 1.435091 
0.194233 0.477814 2.031061 
0.480672 0.193454 2.031495 
0.478271 0.151250 2.549864 
0.150697 0.479439 2.549852 
0.145617 0.468356 2.979802 
0.467665 0.147082 2.980410 
0.180759 0.446984 3.480906 
0.447310 0.177456 3.483316 
0.460865 0.192674 1.290083 
0.191297 0.461186 1.288479 
0.194286 0.470687 1.576042 
0.467073 0.195604 1.574461 
0.438732 0.205316 3.218826 
[...]
POINT_DATA 507
SCALARS u float 1
LOOKUP_TABLE default
0.007043
0.008244
0.009600
0.009288
0.007064
0.008297
0.009232
0.008853
0.006980
0.007240
0.007689
0.008587
0.009037
0.009348
0.009631
0.009523
0.009602
0.008523
0.007886
0.007465
0.007123
0.007298
0.007686
0.008656
0.008890
0.009212
0.009207
0.009097
0.009244
0.008303
0.007661
0.007255
0.006461
0.005352
0.004070
0.004278
0.006131
0.007957
0.008605
0.007408
0.004738
0.003322
0.005205
0.006901
0.007834
0.008180
0.005928
0.003833
0.003725
0.005259
0.006562
0.008586
0.006197
0.003880
0.004257
0.006662
0.007758
0.007800
0.006415
0.004848
0.004237
0.004881
0.006439
0.007790
0.008124
0.006344
0.004186
0.003780
0.005959
0.008389
0.007497
0.005775
0.004229
0.004221
0.005963
0.008150
0.008880
0.006639
0.004517
0.003943
0.005344
0.006770
0.007909
0.008141
0.005900
0.004138
0.004196
0.006010
0.007625
0.008406
0.006158
0.003902
0.004215
0.006367
0.007986
0.008212
0.006625
0.004599
0.004027
0.005007
0.006565
0.007554
0.007247
0.005915
0.003995
0.003766
0.006280
0.008250
0.003921
0.008182
0.007013
0.005756
0.005836
0.007730
0.004227
0.007757
0.006684
0.007959
0.004581
0.007073
0.003573
0.006604
0.008529
0.008002
0.006617
0.006468
0.007259
0.006805
0.007426
0.007571
0.004173
0.004082
0.007858
0.008047
0.005965
0.006314
0.004735
0.004521
0.003822
0.003923
0.004320
0.004520
0.004654
0.004373
0.006912
0.006813
0.007871
0.008170
0.007196
0.006585
0.004982
0.004997
0.006454
0.006939
0.008144
0.008062
0.005424
0.008752
0.004613
0.005246
0.005176
0.005335
0.004056
0.003936
0.009105
0.008263
0.007274
0.007582
0.009188
0.008449
0.004072
0.007173
0.004015
0.005935
0.006952
0.007499
0.006517
0.004270
0.007110
0.007609
0.006876
0.004026
0.006299
0.003679
0.007022
0.003756
0.008135
0.008457
0.008537
0.008815
0.004648
0.004757
0.004402
0.004393
0.004202
0.004123
0.007765
0.007476
0.006227
0.006467
0.006012
0.006127
0.006088
0.005494
0.003999
0.003907
0.003300
0.003522
0.004964
0.004825
0.006407
0.006635
0.007970
0.007854
0.007007
0.006885
0.005206
0.005092
0.007362
0.007674
0.008705
0.009067
0.005045
0.006324
0.006116
0.005316
0.005230
0.008863
0.009275
0.007331
0.007460
0.007517
0.007984
0.008860
0.009169
0.003800
0.004193
0.006298
0.008218
0.006383
0.005504
0.008180
0.008163
0.003794
0.004493
0.008599
0.006696
0.004333
0.006441
0.005978
0.004526
0.006930
0.006766
0.007657
0.007725
0.005649
0.006988
0.004405
0.004798
0.006368
0.006465
0.004420
0.004342
0.003891
0.003358
0.007951
0.008163
0.004972
0.005302
0.005293
0.005991
0.003927
0.004031
0.007691
0.007779
0.006639
0.007310
0.008357
0.008508
0.007129
0.007693
0.005134
0.005049
0.007597
0.008199
0.003522
0.003840
0.007504
0.007348
0.003782
0.007248
0.003933
0.003666
0.005047
0.005431
0.007634
0.007809
0.004023
0.003686
0.006994
0.008574
0.007605
0.007034
0.008309
0.004177
0.006701
0.009129
0.005389
0.007609
0.006451
0.003750
0.007843
0.007230
0.008110
0.005090
0.006552
0.003923
0.006054
0.007217
0.006697
0.006058
0.005612
0.006398
0.005802
0.008556
0.008924
0.003443
0.003935
0.008053
0.008057
0.006114
0.005998
0.004213
0.004647
0.008660
0.008315
0.007930
0.007485
0.003991
0.003916
0.004700
0.004502
0.004188
0.004291
0.006244
0.006566
0.005147
0.004853
0.007113
0.007117
0.007994
0.007911
0.005228
0.007237
0.004630
0.005136
0.006044
0.005938
0.003632
0.003857
0.005197
0.004970
0.007879
0.006810
0.007711
0.007719
0.007621
0.006915
0.010278
0.009292
0.009821
0.009524
0.009745
0.009025
0.010216
0.010186
0.009019
0.010013
0.009675
0.009197
0.008483
0.008977
0.009667
0.009955
0.008480
0.010098
0.009903
0.009921
0.010193
0.009855
0.009343
0.008117
0.009386
0.010195
0.009633
0.010252
0.008893
0.009639
0.008821
0.010441
0.010092
0.009120
0.009682
0.009163
0.008412
0.010313
0.008177
0.009079
0.010308
0.009920
0.009656
0.009920
0.010174
0.010195
0.010233
0.007974
0.009215
0.009632
0.003923
0.009268
0.008226
0.008901
0.008585
0.006043
0.008251
0.008215
0.007486
0.005557
0.008795
0.006195
0.008639
0.006196
0.008907
0.006271
0.005452
0.003273
0.008781
0.008908
0.004691
0.003981
0.009005
0.003095
0.005470
0.008022
0.008051
0.009666
0.009783
0.009622
0.008032
0.002349
0.003237
0.002324
0.002635
0.005536
0.003001
0.005575
0.005441
0.002585
0.005262
0.005510
0.005441
0.008196
0.003018
0.008348
0.008717
0.009035
0.006361
0.005837
0.003648
0.003358
0.009598
0.007536
0.004830
0.004835
0.002158
0.004925
0.002047
0.002544
0.006358
0.006049
0.005459
0.007944
0.006448
0.006393
0.003362
0.008960
0.008823
0.008765
0.008896
0.009040
0.005945
0.005780
0.005650
0.006102
0.009960
0.005687
0.008471
0.005412
0.005385
0.003011
0.007966
0.003486
0.008221
0.008390
0.009275
0.009972
0.006062
