# vtk DataFile Version 2.0
Unstructured Grid Example
ASCII
DATASET UNSTRUCTURED_GRID
POINTS 507 float
-0.000129 0.500775 0.013064 
0.501642 -0.000548 0.015221 
-0.000311 -0.502109 0.017713 
-0.502295 -0.000211 0.017104 
0.000008 0.500553 3.986884 
0.501641 -0.000476 3.984676 
0.000054 -0.501720 3.982930 
-0.502003 -0.000386 3.983676 
0.191740 0.462281 0.012961 
0.354523 0.353790 0.013417 
0.463178 0.191170 0.014234 
0.463097 -0.192515 0.015871 
0.354444 -0.355358 0.016672 
0.191548 -0.463714 0.017280 
-0.192276 -0.463706 0.017786 
-0.355269 -0.354689 0.017577 
-0.464091 -0.192026 0.017701 
-0.463850 0.191492 0.015723 
-0.354764 0.354246 0.014588 
-0.192090 0.462703 0.013831 
0.191868 0.462381 3.986782 
0.354469 0.353702 3.986469 
0.463316 0.191174 3.985784 
0.463473 -0.192392 3.984023 
0.354561 -0.354860 3.983562 
0.191927 -0.463562 3.982968 
-0.191992 -0.463421 3.982967 
-0.354997 -0.354487 3.983182 
-0.463838 -0.191966 3.982939 
-0.463705 0.191280 3.984671 
-0.354700 0.353991 3.985817 
-0.191931 0.462569 3.986546 
0.000194 0.503454 0.211497 
0.000484 0.506519 0.407495 
0.000252 0.507405 0.601518 
-0.000109 0.506398 0.795283 
-0.000245 0.504075 0.989363 
-0.000648 0.501020 1.185263 
-0.000251 0.498036 1.384132 
-0.000075 0.496020 1.586822 
0.000347 0.494595 1.793059 
0.000425 0.493842 1.999943 
0.000101 0.493578 2.207233 
-0.000370 0.495763 2.412098 
-0.000604 0.499196 2.614524 
-0.000351 0.501280 2.815143 
0.000392 0.503594 3.010407 
-0.000099 0.505934 3.203937 
0.000098 0.506819 3.398815 
0.000075 0.506640 3.592829 
0.000121 0.503731 3.788392 
-0.000029 -0.503211 0.215628 
0.000329 -0.505049 0.410345 
0.000281 -0.506583 0.602927 
0.000142 -0.506484 0.795471 
-0.000069 -0.505698 0.989009 
-0.000104 -0.502965 1.185892 
-0.000278 -0.499516 1.385516 
-0.000028 -0.495998 1.588772 
0.000095 -0.493421 1.793848 
-0.000050 -0.492129 2.000207 
-0.000013 -0.493661 2.206488 
-0.000098 -0.496763 2.411520 
-0.000177 -0.500698 2.614458 
-0.000187 -0.502967 2.814801 
-0.000218 -0.505150 3.010603 
-0.000021 -0.506340 3.204506 
0.000034 -0.506469 3.397263 
0.000249 -0.505202 3.590227 
0.000129 -0.503287 3.784762 
0.503673 0.000349 0.213435 
0.506022 0.001114 0.408812 
0.507487 0.000868 0.602224 
0.506329 0.000186 0.795370 
0.503787 -0.000365 0.989591 
0.501291 -0.001434 1.184979 
0.498512 -0.000401 1.383571 
0.496784 0.000140 1.588090 
0.494394 0.000749 1.793798 
0.492743 0.000965 2.000309 
0.493365 0.000525 2.207370 
0.496014 -0.000490 2.411923 
0.499476 -0.000858 2.614663 
0.501955 -0.000521 2.814992 
0.503872 0.000045 3.010257 
0.506091 0.000409 3.204675 
0.507445 0.000799 3.397824 
0.506348 0.000737 3.590840 
0.503928 0.000209 3.786387 
-0.503644 0.000744 0.215171 
-0.505602 0.001191 0.409907 
-0.506694 0.000928 0.602629 
-0.506413 -0.000011 0.795502 
-0.504846 -0.000959 0.989248 
-0.502167 -0.001221 1.185370 
-0.499065 -0.000650 1.384783 
-0.496159 0.000206 1.588305 
-0.494141 0.000795 1.793829 
-0.492603 0.001121 2.000197 
-0.493613 0.000771 2.206721 
-0.496249 0.000202 2.411608 
-0.499749 -0.000953 2.614003 
-0.501471 -0.001044 2.813345 
-0.504434 -0.001115 3.009996 
-0.506151 0.000036 3.204155 
-0.506377 0.000778 3.397226 
-0.505977 0.001191 3.590048 
-0.503973 0.000419 3.785198 
0.357954 -0.359434 0.680601 
0.355176 -0.356696 0.223534 
0.352269 -0.352746 1.464835 
0.357382 -0.358109 0.924640 
0.350123 -0.349749 1.669691 
0.353753 -0.355409 1.196867 
0.348866 -0.347752 1.918563 
0.355354 -0.356070 2.814078 
0.350443 -0.351195 2.405390 
0.353334 -0.354796 2.639209 
0.349215 -0.348503 2.164914 
0.356318 -0.356520 2.950815 
0.370970 -0.344900 3.349578 
0.358027 -0.356827 3.613951 
0.203385 -0.460631 3.791283 
0.461122 -0.202698 3.792333 
0.163797 -0.477252 3.637532 
0.478502 -0.163005 3.638282 
0.177007 -0.472520 0.331338 
0.472441 -0.178557 0.330145 
0.191632 -0.464168 1.189162 
0.462879 -0.193032 1.188842 
0.186070 -0.455888 2.038422 
0.456594 -0.184983 2.038544 
0.148069 -0.478011 2.602396 
0.476405 -0.149373 2.602716 
0.480900 -0.151278 3.017304 
0.151364 -0.481841 3.017601 
0.470550 -0.188162 3.466615 
0.189124 -0.469536 3.466487 
0.215648 -0.458047 3.232700 
0.478725 -0.166072 3.255743 
0.467482 -0.195190 0.550187 
0.194387 -0.467819 0.551264 
0.479205 -0.165604 0.794002 
0.165018 -0.478992 0.794405 
0.467237 -0.189203 1.045608 
0.187929 -0.468275 1.045959 
0.190787 -0.462499 1.334005 
0.461044 -0.192102 1.333475 
0.458971 -0.189858 1.537587 
0.190037 -0.459448 1.538630 
0.174707 -0.461492 1.775918 
0.462282 -0.174011 1.775455 
0.181355 -0.462150 2.407516 
0.461214 -0.182153 2.408259 
0.192311 -0.465104 2.814258 
0.464002 -0.192837 2.814253 
0.354229 -0.361380 0.465149 
0.355923 -0.355591 3.850574 
0.381392 -0.332402 3.150562 
0.283575 -0.418156 3.087985 
0.222307 -0.441163 2.244765 
0.441302 -0.221885 2.245087 
0.089684 -0.484661 1.900337 
0.485294 -0.088903 1.899871 
0.101030 -0.492506 3.884990 
0.492696 -0.100948 3.886610 
0.267675 -0.420539 2.515739 
0.419198 -0.268808 2.516242 
0.189420 -0.465626 0.138091 
0.465439 -0.190441 0.136651 
-0.358215 -0.358217 0.766843 
-0.368232 -0.344939 0.343131 
-0.358527 -0.357942 0.592504 
-0.350045 -0.349592 1.670231 
-0.352137 -0.352316 1.475644 
-0.354584 -0.355763 1.219335 
-0.357087 -0.358049 0.989224 
-0.348922 -0.347893 1.894868 
-0.354587 -0.355516 2.813026 
-0.353326 -0.354380 2.624530 
-0.351399 -0.352021 2.463626 
-0.349070 -0.348111 2.074109 
-0.356796 -0.357354 3.000169 
-0.358227 -0.357951 3.267287 
-0.368434 -0.345078 3.656886 
-0.358178 -0.357731 3.414627 
-0.474125 -0.170770 3.757860 
-0.474051 -0.170578 0.242157 
-0.254649 -0.434134 3.795276 
-0.260171 -0.430643 0.198526 
-0.205018 -0.448660 2.178664 
-0.449069 -0.204146 2.178942 
-0.150433 -0.483597 0.804850 
-0.483595 -0.150715 0.804981 
-0.163182 -0.464364 1.988219 
-0.464951 -0.162086 1.988232 
-0.176284 -0.468816 2.608783 
-0.467703 -0.177260 2.608253 
-0.466125 -0.193886 3.006838 
-0.193308 -0.466700 3.007211 
-0.465936 -0.195411 0.415133 
-0.215976 -0.456481 0.410853 
-0.466323 -0.195691 3.581273 
-0.185839 -0.470005 3.560809 
-0.468195 -0.193648 0.599142 
-0.194258 -0.467819 0.599047 
-0.468558 -0.191285 3.339052 
-0.190261 -0.469443 3.335601 
-0.193129 -0.467723 3.138117 
-0.467420 -0.193534 3.138476 
-0.469984 -0.185856 0.990479 
-0.184766 -0.470802 0.990151 
-0.455111 -0.207710 1.314417 
-0.206780 -0.455774 1.314598 
-0.458857 -0.189725 1.538191 
-0.189806 -0.458808 1.538428 
-0.185129 -0.457951 1.745295 
-0.458696 -0.184361 1.745271 
-0.462751 -0.192801 2.813579 
-0.191932 -0.463813 2.814126 
-0.389901 -0.318083 3.831266 
-0.389845 -0.318139 0.169069 
-0.349640 -0.349198 2.253783 
-0.467955 -0.164104 2.391756 
-0.164199 -0.468442 2.391519 
-0.272215 -0.426713 0.885887 
-0.426267 -0.272768 0.886038 
-0.114444 -0.489473 3.851600 
-0.117470 -0.488899 0.146281 
-0.447365 -0.230998 1.139520 
-0.229735 -0.448489 1.139343 
-0.112473 -0.491213 3.715058 
-0.120619 -0.489348 0.278220 
-0.494551 -0.092202 3.876939 
-0.494642 -0.092102 0.123473 
-0.357961 0.358867 0.702219 
-0.357621 0.359273 0.568373 
-0.345145 0.369074 0.336896 
-0.352301 0.351548 1.449958 
-0.349943 0.350487 1.665032 
-0.357633 0.357008 0.902787 
-0.354499 0.352912 1.242872 
-0.354815 0.353773 2.815115 
-0.348512 0.349667 1.917214 
-0.348522 0.349635 2.164840 
-0.354249 0.352815 2.639990 
-0.350943 0.350825 2.406348 
-0.357282 0.357897 3.174413 
-0.356643 0.355748 2.999113 
-0.347395 0.367420 3.636280 
-0.355516 0.361412 3.463047 
-0.195703 0.464305 3.798272 
-0.170877 0.474264 0.238105 
-0.422538 0.273244 3.831951 
-0.431289 0.259818 0.195628 
-0.156373 0.480845 3.648476 
-0.474248 0.173264 3.694017 
-0.210293 0.461543 3.468434 
-0.457147 0.218613 3.467022 
-0.449872 0.228320 0.990692 
-0.229327 0.449000 0.990356 
-0.185722 0.470930 0.808857 
-0.470887 0.185783 0.809056 
-0.456171 0.186830 2.037836 
-0.185694 0.457636 2.037585 
-0.477143 0.147603 2.602395 
-0.149041 0.476377 2.602785 
-0.464286 0.197687 3.081929 
-0.197719 0.464165 3.082687 
-0.195844 0.466834 0.413211 
-0.457818 0.215187 0.405484 
-0.473302 0.181061 0.600087 
-0.179545 0.474400 0.599332 
-0.462075 0.197381 1.139958 
-0.199075 0.460763 1.139707 
-0.462015 0.182221 2.408011 
-0.181795 0.460887 2.408935 
-0.461646 0.190078 1.329896 
-0.191707 0.460760 1.329609 
-0.459205 0.190024 1.534629 
-0.190347 0.458855 1.533600 
-0.174313 0.462726 1.773589 
-0.461951 0.175581 1.774022 
-0.455344 0.211831 2.852969 
-0.212865 0.454158 2.854204 
-0.467766 0.193742 3.268200 
-0.191055 0.469217 3.268954 
-0.318296 0.389726 0.165011 
-0.318194 0.389593 3.845581 
-0.356453 0.360492 3.329377 
-0.356444 0.355179 1.067070 
-0.092856 0.498492 0.701102 
-0.497944 0.093622 0.701643 
-0.441344 0.223014 2.244887 
-0.221713 0.441339 2.245360 
-0.419968 0.267641 2.516276 
-0.268637 0.419073 2.516555 
-0.484923 0.090751 1.899217 
-0.089418 0.485998 1.898917 
-0.098832 0.492492 3.889848 
-0.489271 0.117388 0.144478 
-0.489902 0.121084 0.275909 
-0.092333 0.493885 0.119399 
-0.485992 0.130151 3.856505 
0.359587 0.358280 0.676471 
0.357184 0.355243 0.220584 
0.352474 0.351393 1.368626 
0.357236 0.356842 0.904460 
0.355114 0.355113 1.102585 
0.350881 0.350779 1.647574 
0.348755 0.349484 1.913345 
0.354829 0.354406 2.814494 
0.350520 0.350479 2.406314 
0.353509 0.353182 2.639539 
0.348569 0.348943 2.164817 
0.355662 0.355336 2.950171 
0.345287 0.371605 3.350768 
0.358052 0.358509 3.615856 
0.460996 0.203204 3.793865 
0.203123 0.460838 3.794822 
0.478452 0.164374 3.639367 
0.163861 0.478656 3.640358 
0.473311 0.177574 0.329163 
0.179651 0.472539 0.327845 
0.190852 0.460020 1.377453 
0.460621 0.189861 1.376765 
0.186382 0.457267 2.036528 
0.456143 0.186688 2.036358 
0.477062 0.147577 2.602736 
0.147794 0.476603 2.602741 
0.151934 0.480291 3.017722 
0.480563 0.151358 3.017483 
0.188749 0.470578 3.468710 
0.470450 0.190048 3.467762 
0.462362 0.190818 1.233120 
0.191359 0.462236 1.233751 
0.190184 0.458499 1.525446 
0.459921 0.189666 1.526068 
0.457790 0.215878 3.233512 
0.166257 0.478561 3.255960 
[...]
POINT_DATA 507
SCALARS u float 1
LOOKUP_TABLE default
0.007043
0.008244
0.009600
0.009288
0.007064
0.008297
0.009232
0.008853
0.006980
0.007240
0.007689
0.008587
0.009037
0.009348
0.009631
0.009523
0.009602
0.008523
0.007886
0.007465
0.007123
0.007298
0.007686
0.008656
0.008890
0.009212
0.009207
0.009097
0.009244
0.008303
0.007661
0.007255
0.006461
0.005352
0.004070
0.004278
0.006131
0.007957
0.008605
0.007408
0.004738
0.003322
0.005205
0.006901
0.007834
0.008180
0.005928
0.003833
0.003725
0.005259
0.006562
0.008586
0.006197
0.003880
0.004257
0.006662
0.007758
0.007800
0.006415
0.004848
0.004237
0.004881
0.006439
0.007790
0.008124
0.006344
0.004186
0.003780
0.005959
0.008389
0.007497
0.005775
0.004229
0.004221
0.005963
0.008150
0.008880
0.006639
0.004517
0.003943
0.005344
0.006770
0.007909
0.008141
0.005900
0.004138
0.004196
0.006010
0.007625
0.008406
0.006158
0.003902
0.004215
0.006367
0.007986
0.008212
0.006625
0.004599
0.004027
0.005007
0.006565
0.007554
0.007247
0.005915
0.003995
0.003766
0.006280
0.008250
0.003921
0.008182
0.007013
0.005756
0.005836
0.007730
0.004227
0.007757
0.006684
0.007959
0.004581
0.007073
0.003573
0.006604
0.008529
0.008002
0.006617
0.006468
0.007259
0.006805
0.007426
0.007571
0.004173
0.004082
0.007858
0.008047
0.005965
0.006314
0.004735
0.004521
0.003822
0.003923
0.004320
0.004520
0.004654
0.004373
0.006912
0.006813
0.007871
0.008170
0.007196
0.006585
0.004982
0.004997
0.006454
0.006939
0.008144
0.008062
0.005424
0.008752
0.004613
0.005246
0.005176
0.005335
0.004056
0.003936
0.009105
0.008263
0.007274
0.007582
0.009188
0.008449
0.004072
0.007173
0.004015
0.005935
0.006952
0.007499
0.006517
0.004270
0.007110
0.007609
0.006876
0.004026
0.006299
0.003679
0.007022
0.003756
0.008135
0.008457
0.008537
0.008815
0.004648
0.004757
0.004402
0.004393
0.004202
0.004123
0.007765
0.007476
0.006227
0.006467
0.006012
0.006127
0.006088
0.005494
0.003999
0.003907
0.003300
0.003522
0.004964
0.004825
0.006407
0.006635
0.007970
0.007854
0.007007
0.006885
0.005206
0.005092
0.007362
0.007674
0.008705
0.009067
0.005045
0.006324
0.006116
0.005316
0.005230
0.008863
0.009275
0.007331
0.007460
0.007517
0.007984
0.008860
0.009169
0.003800
0.004193
0.006298
0.008218
0.006383
0.005504
0.008180
0.008163
0.003794
0.004493
0.008599
0.006696
0.004333
0.006441
0.005978
0.004526
0.006930
0.006766
0.007657
0.007725
0.005649
0.006988
0.004405
0.004798
0.006368
0.006465
0.004420
0.004342
0.003891
0.003358
0.007951
0.008163
0.004972
0.005302
0.005293
0.005991
0.003927
0.004031
0.007691
0.007779
0.006639
0.007310
0.008357
0.008508
0.007129
0.007693
0.005134
0.005049
0.007597
0.008199
0.003522
0.003840
0.007504
0.007348
0.003782
0.007248
0.003933
0.003666
0.005047
0.005431
0.007634
0.007809
0.004023
0.003686
0.006994
0.008574
0.007605
0.007034
0.008309
0.004177
0.006701
0.009129
0.005389
0.007609
0.006451
0.003750
0.007843
0.007230
0.008110
0.005090
0.006552
0.003923
0.006054
0.007217
0.006697
0.006058
0.005612
0.006398
0.005802
0.008556
0.008924
0.003443
0.003935
0.008053
0.008057
0.006114
0.005998
0.004213
0.004647
0.008660
0.008315
0.007930
0.007485
0.003991
0.003916
0.004700
0.004502
0.004188
0.004291
0.006244
0.006566
0.005147
0.004853
0.007113
0.007117
0.007994
0.007911
0.005228
0.007237
0.004630
0.005136
0.006044
0.005938
0.003632
0.003857
0.005197
0.004970
0.007879
0.006810
0.007711
0.007719
0.007621
0.006915
0.010278
0.009292
0.009821
0.009524
0.009745
0.009025
0.010216
0.010186
0.009019
0.010013
0.009675
0.009197
0.008483
0.008977
0.009667
0.009955
0.008480
0.010098
0.009903
0.009921
0.010193
0.009855
0.009343
0.008117
0.009386
0.010195
0.009633
0.010252
0.008893
0.009639
0.008821
0.010441
0.010092
0.009120
0.009682
0.009163
0.008412
0.010313
0.008177
0.009079
0.010308
0.009920
0.009656
0.009920
0.010174
0.010195
0.010233
0.007974
0.009215
0.009632
0.003923
0.009268
0.008226
0.008901
0.008585
0.006043
0.008251
0.008215
0.007486
0.005557
0.008795
0.006195
0.008639
0.006196
0.008907
0.006271
0.005452
0.003273
0.008781
0.008908
0.004691
0.003981
0.009005
0.003095
0.005470
0.008022
0.008051
0.009666
0.009783
0.009622
0.008032
0.002349
0.003237
0.002324
0.002635
0.005536
0.003001
0.005575
0.005441
0.002585
0.005262
0.005510
0.005441
0.008196
0.003018
0.008348
0.008717
0.009035
0.006361
0.005837
0.003648
0.003358
0.009598
0.007536
0.004830
0.004835
0.002158
0.004925
0.002047
0.002544
0.006358
0.006049
0.005459
0.007944
0.006448
0.006393
0.003362
0.008960
0.008823
0.008765
0.008896
0.009040
0.005945
0.005780
0.005650
0.006102
0.009960
0.005687
0.008471
0.005412
0.005385
0.003011
0.007966
0.003486
0.008221
0.008390
0.009275
0.009972
0.006062
