# vtk DataFile Version 2.0
Unstructured Grid Example
ASCII
DATASET UNSTRUCTURED_GRID
POINTS 749 float
-0.008235 0.000025 0.031067 
0.491844 0.000412 -0.015676 
0.193258 0.700515 0.012744 
0.697005 0.702346 -0.019117 
0.093375 0.700586 0.020006 
0.093552 1.000619 0.021857 
1.608570 1.003559 0.043500 
1.608456 0.703670 0.030801 
0.914189 0.504339 -0.030134 
1.003258 0.704058 -0.018191 
0.637529 0.501921 -0.021775 
0.651846 0.551845 -0.021274 
0.899402 0.554212 -0.027506 
1.053617 0.704026 -0.015890 
0.008432 -0.000148 0.211042 
0.508356 -0.000327 0.164321 
0.206680 0.699463 0.192730 
0.703039 0.697777 0.160921 
0.106584 0.699384 0.200009 
0.106342 0.999346 0.201850 
1.591481 0.996097 0.223489 
1.591424 0.695959 0.210798 
0.916007 0.495519 0.149827 
0.996458 0.696065 0.161939 
0.648129 0.498099 0.158276 
0.662336 0.548093 0.158710 
0.900807 0.545665 0.152526 
1.046069 0.696080 0.163951 
1.595721 0.847920 0.172233 
1.604254 0.851722 0.082244 
1.600004 0.894834 0.129120 
1.599968 0.804817 0.125305 
0.303061 0.849624 0.141319 
0.296870 0.850389 0.051345 
0.299914 0.895001 0.096680 
0.299955 0.805000 0.095961 
0.116759 0.000073 0.019443 
0.241769 0.000179 0.007676 
0.366789 0.000291 -0.004071 
0.016781 0.087525 0.028789 
0.041801 0.175024 0.026465 
0.066801 0.262518 0.024123 
0.091877 0.350040 0.021749 
0.117144 0.437582 0.019234 
0.142515 0.525183 0.016831 
0.167845 0.612774 0.014618 
0.143360 0.700566 0.016349 
0.093487 0.850606 0.020875 
0.200761 1.000626 0.014168 
0.308189 1.000721 0.006626 
0.416100 1.000922 -0.000341 
0.524285 1.001088 -0.006165 
0.632819 1.001448 -0.010501 
0.741908 1.001701 -0.012596 
0.851060 1.002016 -0.012243 
0.960220 1.002423 -0.009223 
1.069217 1.002798 -0.003740 
1.178080 1.003252 0.003874 
1.286155 1.003348 0.012908 
1.393970 1.003438 0.022816 
1.501378 1.003542 0.033165 
1.608557 0.853625 0.037252 
0.850627 0.703436 -0.021168 
0.612113 0.418031 -0.021910 
0.587706 0.334364 -0.021673 
0.563645 0.250790 -0.020645 
0.539586 0.167223 -0.019174 
0.515678 0.083795 -0.017508 
0.776667 0.503716 -0.027937 
0.983821 0.604131 -0.024057 
0.951471 0.629385 -0.023255 
0.776012 0.553489 -0.025961 
0.673606 0.627068 -0.020462 
1.147484 0.704025 -0.010343 
1.240297 0.703954 -0.003220 
1.332742 0.703864 0.004653 
1.424862 0.703808 0.013259 
1.516736 0.703721 0.022042 
0.133424 -0.000134 0.199442 
0.258437 -0.000190 0.187701 
0.383387 -0.000257 0.175931 
0.033387 0.087368 0.208800 
0.058341 0.174883 0.206467 
0.083289 0.262405 0.204129 
0.108197 0.349906 0.201756 
0.132956 0.437384 0.199263 
0.157496 0.524786 0.196828 
0.182135 0.612190 0.194597 
0.156593 0.699414 0.196361 
0.106440 0.849359 0.200875 
0.213402 0.999349 0.194174 
0.320269 0.999302 0.186609 
0.426603 0.999076 0.179719 
0.532768 0.998986 0.173750 
0.638497 0.998661 0.169471 
0.743727 0.998440 0.167399 
0.848868 0.998106 0.167757 
0.954037 0.997680 0.170774 
1.059389 0.997259 0.176250 
1.164841 0.996715 0.183839 
1.271098 0.996551 0.192887 
1.377564 0.996310 0.202867 
1.484393 0.996149 0.213179 
1.591431 0.846017 0.217240 
0.849283 0.696714 0.158785 
0.626037 0.415405 0.158072 
0.602779 0.332361 0.158372 
0.579360 0.249343 0.159328 
0.555782 0.166205 0.160829 
0.532089 0.082976 0.162494 
0.781370 0.496254 0.152074 
0.981474 0.595738 0.155886 
0.948729 0.620369 0.156908 
0.781288 0.546473 0.153990 
0.683381 0.623045 0.159574 
1.135730 0.696007 0.169731 
1.226244 0.695950 0.176743 
1.317107 0.695957 0.184697 
1.408324 0.695955 0.193242 
1.499796 0.695979 0.202045 
0.000117 -0.000057 0.121055 
0.500103 0.000042 0.074324 
0.199984 0.699995 0.102720 
0.699885 0.700044 0.070361 
0.099990 0.699979 0.110003 
0.099947 0.999986 0.111849 
1.600003 0.999837 0.133474 
1.599930 0.699816 0.120798 
0.915002 0.499926 0.059876 
0.999969 0.700083 0.071821 
0.642926 0.500102 0.068081 
0.657258 0.550107 0.068530 
0.899987 0.549914 0.062352 
1.050057 0.699933 0.073889 
1.596971 0.816649 0.157682 
1.602976 0.819348 0.094051 
1.603001 0.882979 0.096751 
1.596984 0.880313 0.160383 
0.297800 0.882110 0.064787 
0.297766 0.818463 0.064256 
0.302170 0.817916 0.127888 
0.302123 0.881555 0.128418 
1.502925 0.847951 0.163339 
1.410167 0.847993 0.154439 
1.317574 0.848078 0.145727 
1.225091 0.848183 0.137656 
1.132772 0.848272 0.130440 
1.040467 0.848347 0.124831 
0.948554 0.848485 0.120993 
0.856669 0.848720 0.118712 
0.764650 0.848880 0.118677 
0.672532 0.849085 0.120495 
0.580412 0.849319 0.124008 
0.488173 0.849439 0.128877 
0.395639 0.849526 0.134822 
1.507143 0.894845 0.120237 
1.414289 0.894871 0.111268 
1.321425 0.894914 0.102581 
1.228549 0.894954 0.094356 
1.135695 0.895001 0.087147 
1.042830 0.895040 0.081339 
0.949966 0.895058 0.077231 
0.857112 0.895081 0.074942 
0.764239 0.895066 0.074698 
0.671405 0.895061 0.076476 
0.578556 0.895026 0.079678 
0.485656 0.895008 0.084446 
0.392863 0.895039 0.090219 
1.511334 0.851739 0.073336 
1.418383 0.851759 0.064436 
1.325245 0.851759 0.055739 
1.232069 0.851758 0.047664 
1.138622 0.851719 0.040452 
1.045170 0.851722 0.034879 
0.951365 0.851645 0.030895 
0.857583 0.851466 0.028749 
0.763780 0.851230 0.028734 
0.670236 0.850965 0.030412 
0.576572 0.850794 0.033864 
0.483240 0.850643 0.038884 
0.389970 0.850495 0.044807 
1.507108 0.804854 0.116417 
1.414270 0.804869 0.107484 
1.321417 0.804929 0.098790 
1.228489 0.804938 0.090690 
1.135786 0.804993 0.083497 
1.042836 0.804982 0.078067 
0.949973 0.805060 0.074291 
0.857135 0.805078 0.072068 
0.764278 0.805110 0.072458 
0.671423 0.805079 0.074345 
0.578579 0.805087 0.078032 
0.485639 0.805024 0.083151 
0.392837 0.805027 0.089268 
1.596184 0.949975 0.171804 
1.596138 0.746279 0.163182 
1.603768 0.749720 0.082553 
1.603753 0.952736 0.091940 
1.606595 0.787288 0.054463 
1.593342 0.781337 0.194393 
1.606732 0.917148 0.059071 
1.593372 0.912403 0.199938 
1.605423 0.821277 0.068432 
1.594528 0.816406 0.183389 
1.605544 0.882535 0.070025 
1.594546 0.878385 0.186015 
1.597049 0.911020 0.161024 
1.597003 0.785892 0.155809 
1.602928 0.788549 0.093291 
1.603216 0.912747 0.095927 
1.599955 0.759010 0.123338 
1.600075 0.939716 0.130251 
0.346239 0.832494 0.120759 
1.552951 0.831404 0.149994 
0.718172 0.826995 0.096371 
0.810771 0.826984 0.095272 
0.903067 0.826725 0.096359 
0.625793 0.827162 0.099060 
1.180529 0.826590 0.110534 
0.440588 0.827258 0.108962 
0.995442 0.826656 0.099335 
0.533257 0.827216 0.103425 
1.087925 0.826611 0.104159 
1.273196 0.826526 0.118168 
1.365865 0.826472 0.126582 
1.458622 0.826402 0.135428 
0.334145 0.817026 0.105783 
1.565483 0.816439 0.134761 
0.346255 0.867028 0.121038 
1.552967 0.865924 0.151458 
0.810663 0.872039 0.096722 
0.718279 0.872137 0.097654 
0.903041 0.871959 0.098011 
0.625763 0.872181 0.100068 
0.995412 0.871867 0.100990 
0.533197 0.872249 0.104153 
0.440529 0.872245 0.109545 
1.180548 0.871664 0.112363 
1.087907 0.871719 0.105909 
1.273132 0.871519 0.119970 
1.365888 0.871488 0.128483 
1.458639 0.871430 0.137328 
0.334099 0.882785 0.106351 
1.565513 0.882206 0.137549 
0.299969 0.849968 0.096501 
0.300474 0.832142 0.103587 
0.298728 0.842769 0.078438 
0.301218 0.856822 0.114503 
0.299482 0.868058 0.089765 
1.558155 0.833757 0.094496 
0.343221 0.822399 0.075668 
0.717193 0.827998 0.051460 
0.810646 0.828205 0.050304 
0.904075 0.828396 0.051455 
0.624173 0.827891 0.053928 
1.090674 0.828346 0.059087 
0.530962 0.827884 0.058412 
0.997352 0.828419 0.054365 
1.183786 0.828388 0.065522 
0.437896 0.827783 0.063935 
1.276797 0.828374 0.073219 
1.369816 0.828331 0.081591 
1.462764 0.828322 0.090423 
1.567767 0.817469 0.110511 
0.331105 0.838178 0.060985 
0.342550 0.867515 0.065567 
1.557200 0.878314 0.106901 
0.717341 0.872984 0.052645 
0.810683 0.873101 0.051745 
0.904033 0.873184 0.053002 
0.624236 0.872930 0.055088 
1.183717 0.873301 0.067375 
0.997354 0.873253 0.055983 
1.090617 0.873319 0.060923 
0.531036 0.872835 0.059139 
0.437917 0.872758 0.064505 
1.276840 0.873329 0.075029 
1.369807 0.873300 0.083485 
1.462782 0.873286 0.092327 
0.332509 0.883003 0.082111 
1.569743 0.863338 0.091684 
0.412994 0.596239 -0.004739 
0.338404 0.362374 -0.000341 
0.375489 0.794186 0.000053 
0.523864 0.718502 -0.010606 
0.533632 0.557704 -0.013870 
1.040309 0.852050 -0.010292 
0.315991 0.681739 0.003262 
0.431750 0.473183 -0.007441 
0.287186 0.494869 0.004582 
0.239449 0.189100 0.008182 
0.616132 0.837703 -0.012737 
0.259437 0.775451 0.008263 
0.424974 0.700232 -0.004434 
1.181268 0.850823 -0.001678 
0.394944 0.208849 -0.006001 
1.374787 0.850357 0.014824 
0.505164 0.840299 -0.007557 
0.489973 0.637521 -0.009739 
0.470143 0.342748 -0.011841 
0.587184 0.637128 -0.015709 
0.307729 0.588550 0.003321 
0.225933 0.360989 0.009602 
0.767774 0.834880 -0.016679 
0.540284 0.460135 -0.015889 
1.104703 0.799876 -0.008892 
0.717777 0.530423 -0.024580 
0.905236 0.908585 -0.013557 
0.938835 0.783118 -0.016849 
0.834342 0.531867 -0.027785 
0.312979 0.887943 0.005377 
0.256160 0.639252 0.007598 
0.457436 0.529661 -0.008819 
0.366830 0.511840 -0.001991 
0.393450 0.887360 -0.000154 
0.590272 0.542101 -0.017949 
1.024908 0.772652 -0.014202 
0.623868 0.749269 -0.014951 
0.993541 0.653495 -0.020959 
0.166384 0.106786 0.014936 
0.182739 0.798458 0.014050 
1.283847 0.794893 0.004318 
1.474759 0.796069 0.021978 
0.170232 0.282377 0.014644 
0.336017 0.115359 -0.000906 
0.378200 0.649189 -0.001613 
0.938087 0.576039 -0.026083 
0.204124 0.450017 0.011530 
0.472287 0.759636 -0.006840 
0.258543 0.709116 0.007819 
0.355706 0.440311 -0.001506 
0.193149 0.896421 0.013964 
0.281890 0.291637 0.004437 
1.107214 0.915231 -0.004331 
1.278489 0.895584 0.008027 
0.254050 0.563858 0.007551 
1.467385 0.907707 0.025982 
0.568373 0.910101 -0.009573 
0.450245 0.148111 -0.011252 
0.368224 0.721977 -0.000156 
0.475970 0.248613 -0.013039 
0.431899 0.067287 -0.009922 
0.282701 0.414061 0.004675 
0.689649 0.905730 -0.013750 
0.614234 0.589572 -0.018275 
0.585147 0.487864 -0.018653 
0.533322 0.383773 -0.016536 
0.551144 0.782123 -0.011057 
0.474885 0.579872 -0.009455 
0.694417 0.794026 -0.016484 
[...]
POINT_DATA 749
SCALARS u float 1
LOOKUP_TABLE default
0.064941
0.035716
0.029151
0.039386
0.042600
0.046063
0.089873
0.064963
0.061538
0.038230
0.045461
0.044454
0.056238
0.033918
0.064996
0.035904
0.029068
0.039293
0.042581
0.045991
0.089889
0.065111
0.061668
0.038030
0.045331
0.044447
0.056224
0.034313
0.075844
0.075824
0.079045
0.071336
0.014207
0.014317
0.013498
0.012045
0.042671
0.022744
0.018527
0.060494
0.055982
0.051481
0.046911
0.041981
0.037221
0.032890
0.035672
0.044201
0.031422
0.018251
0.010949
0.015330
0.022204
0.025754
0.025163
0.020246
0.013725
0.016884
0.030998
0.049517
0.069558
0.077577
0.043349
0.046518
0.046408
0.044609
0.042021
0.039016
0.057129
0.049392
0.047909
0.053180
0.042750
0.025319
0.017439
0.019852
0.032421
0.048253
0.042814
0.023084
0.018844
0.060611
0.056073
0.051552
0.046977
0.042112
0.037225
0.032834
0.035661
0.044160
0.031334
0.018070
0.010635
0.015349
0.022170
0.025715
0.025137
0.020221
0.013638
0.016775
0.030897
0.049615
0.069625
0.077630
0.043401
0.046573
0.046324
0.044758
0.042112
0.039135
0.057146
0.049522
0.047658
0.053319
0.042585
0.025288
0.017762
0.020276
0.032662
0.048453
0.062749
0.031676
0.025702
0.039684
0.040417
0.044147
0.087843
0.062232
0.060868
0.036733
0.044289
0.043382
0.055865
0.032554
0.072786
0.072768
0.078205
0.078216
0.014083
0.013091
0.013034
0.014015
0.058040
0.040355
0.023356
0.009578
0.011508
0.021369
0.028616
0.033026
0.033066
0.029451
0.022561
0.013380
0.005713
0.061096
0.042974
0.025422
0.008801
0.005765
0.017501
0.025801
0.030427
0.030919
0.027327
0.020856
0.011223
0.000449
0.057984
0.040291
0.023301
0.009568
0.011448
0.021265
0.028825
0.032981
0.032976
0.029639
0.022916
0.013393
0.005931
0.053378
0.035328
0.017761
0.001410
0.013140
0.024111
0.031741
0.036234
0.035446
0.031633
0.024183
0.013839
0.001481
0.084265
0.066976
0.066922
0.084183
0.071062
0.071130
0.082021
0.082102
0.073535
0.073576
0.078752
0.078805
0.080781
0.070129
0.070108
0.080744
0.067364
0.082834
0.007119
0.065423
0.032612
0.034827
0.032668
0.027213
0.005460
0.007634
0.026729
0.018482
0.017170
0.012179
0.028811
0.046573
0.007569
0.066000
0.007617
0.068365
0.031894
0.030019
0.029316
0.025174
0.023383
0.017007
0.006499
0.003650
0.013697
0.015685
0.032603
0.050389
0.008677
0.071626
0.012833
0.012574
0.012961
0.013186
0.013164
0.065395
0.006384
0.032454
0.034774
0.032485
0.027486
0.017313
0.018534
0.026669
0.005496
0.007752
0.012241
0.028795
0.046532
0.065985
0.009037
0.007715
0.069091
0.030050
0.031858
0.029341
0.025142
0.003578
0.023395
0.013660
0.017055
0.006674
0.015750
0.032579
0.050363
0.008728
0.070150
0.016506
0.015708
0.012394
0.024043
0.030645
0.023471
0.014918
0.020787
0.017587
0.023402
0.026837
0.021285
0.015394
0.015360
0.020254
0.034933
0.018355
0.023187
0.028389
0.033610
0.015706
0.025262
0.034107
0.034845
0.022073
0.050558
0.028204
0.035069
0.056793
0.016474
0.020831
0.022392
0.015014
0.011699
0.038185
0.030649
0.031417
0.043478
0.034434
0.031351
0.018874
0.048117
0.033882
0.016605
0.013693
0.053409
0.027994
0.017863
0.020809
0.015383
0.031083
0.018611
0.015794
0.023249
0.021083
0.055666
0.020993
0.027974
0.012865
0.030770
0.025984
0.018192
0.028333
0.038632
0.039717
0.036505
0.024327
0.023062
0.033881
0.020354
0.041212
0.019038
0.017699
0.038326
0.035589
0.022420
0.022265
0.026297
0.018123
0.029782
0.030094
0.028646
0.028067
0.073401
0.034864
0.015713
0.020645
0.037895
0.014088
0.014324
0.033811
0.038512
0.026804
0.036759
0.028093
0.060674
0.016420
0.034162
0.013864
0.037376
0.040420
0.014391
0.058478
0.048687
0.016628
0.015530
0.022744
0.017708
0.029264
0.014212
0.035472
0.029493
0.022362
0.013796
0.018318
0.026147
0.018825
0.027263
0.047648
0.032288
0.015179
0.038063
0.022848
0.016456
0.015872
0.012258
0.023698
0.030906
0.023464
0.014997
0.020827
0.017651
0.024006
0.027128
0.021239
0.015189
0.015396
0.020652
0.035186
0.018096
0.022976
0.028255
0.033561
0.015574
0.025383
0.034243
0.034879
0.022064
0.050576
0.028122
0.035016
0.056813
0.016337
0.020604
0.022434
0.015086
0.011399
0.038084
0.030827
0.031388
0.043380
0.034777
0.031551
0.019198
0.048342
0.034017
0.016925
0.013648
0.053444
0.028179
0.017643
0.020702
0.015489
0.031219
0.018808
0.015847
0.023607
0.020985
0.055781
0.020876
0.028209
0.012733
0.030961
0.026179
0.018276
0.028248
0.038536
0.039551
0.036501
0.024233
0.023081
0.033330
0.020290
0.041535
0.019197
0.017607
0.038051
0.035352
0.022917
0.022313
0.026307
0.018352
0.030099
0.030115
0.028714
0.028205
0.073462
0.034721
0.015542
0.020255
0.038116
0.014120
0.014365
0.033956
0.038841
0.026651
0.036715
0.028028
0.060813
0.016629
0.034204
0.013668
0.037219
0.040288
0.014368
0.058514
0.048780
0.016624
0.015412
0.022702
0.017844
0.029394
0.013979
0.035590
0.029437
0.022295
0.013635
0.018555
0.026321
0.019133
0.027184
0.047824
0.032487
0.015214
0.038030
0.022491
0.043204
0.036961
0.044479
0.040408
0.034483
0.045046
0.044992
0.034447
0.054456
0.059338
0.059376
0.044832
0.055565
0.055242
0.049454
0.042718
0.042798
0.042263
0.042360
0.040949
0.040947
0.043236
0.041841
0.041265
0.042522
0.054065
0.049463
0.049541
0.015313
0.018035
0.037226
0.001258
0.025862
0.051280
0.051956
0.026635
0.020407
0.005880
0.007372
0.017862
0.024484
0.026402
0.022905
0.014205
0.000947
0.016355
0.035751
0.055868
0.073520
0.033437
0.037814
0.079158
0.026830
0.004348
0.016725
0.047699
0.056057
0.046316
0.031243
0.041422
0.051152
0.036124
0.028250
0.059997
0.060357
0.028293
0.032031
0.036964
0.032001
0.036976
0.043426
0.043381
0.041590
0.041608
0.042155
0.020198
0.006253
0.004787
0.013012
0.009816
0.015123
0.005725
0.004291
0.022715
0.013706
0.012036
0.005515
0.004118
0.007593
0.006175
0.016510
0.015879
0.011192
0.012129
0.010761
0.010498
0.031345
0.024745
0.008886
0.010087
0.020595
0.022550
0.007566
0.026251
0.025817
0.018594
0.018482
0.022621
0.021770
0.021404
0.010469
0.009953
0.009360
0.020460
0.015817
0.020509
0.009926
0.009883
0.008311
0.008688
0.032523
0.031748
0.031499
0.023605
0.022294
0.011471
0.028854
0.028457
0.031324
0.031612
0.026711
0.026385
0.024537
0.032861
0.010357
0.020503
0.009256
0.020086
0.006908
0.005480
0.008989
0.019567
0.020636
0.011472
0.020741
0.028325
0.028034
0.011756
0.006729
0.029752
0.035781
0.033392
0.032313
0.030391
0.032216
0.032411
0.020039
0.020526
0.008733
0.021222
0.014538
0.019843
0.008466
0.023282
0.017145
0.010861
0.029471
0.018045
0.033200
0.034237
0.024756
0.024319
0.053203
0.040062
0.027082
0.027700
0.034571
0.044760
0.032097
0.020922
0.016593
0.011831
0.014669
0.019389
0.013900
0.009038
0.005381
0.021223
0.020391
0.019713
0.019901
0.020210
0.020740
0.021259
0.016394
0.020752
0.025575
0.030484
0.020275
0.015110
0.016123
0.024881
0.029900
0.034893
0.030344
0.029458
0.030840
0.025367
0.024409
0.025998
0.024743
0.018908
0.020798
0.019188
0.021254
0.021712
0.013366
0.012799
0.015820
0.013622
0.011597
0.066419
