# vtk DataFile Version 2.0
Unstructured Grid Example
ASCII
DATASET UNSTRUCTURED_GRID
POINTS 749 float
0.002344 -0.000007 -0.008843 
0.502322 -0.000117 0.004462 
0.201919 0.699854 -0.003627 
0.700853 0.699332 0.005441 
0.101886 0.699833 -0.005694 
0.101835 0.999824 -0.006221 
1.597561 0.998987 -0.012381 
1.597593 0.698955 -0.008767 
0.915231 0.498765 0.008577 
0.999073 0.698845 0.005178 
0.644374 0.499453 0.006198 
0.658651 0.549475 0.006055 
0.900170 0.548801 0.007829 
1.048971 0.698854 0.004523 
-0.002400 0.000042 0.171164 
0.497622 0.000093 0.184463 
0.198099 0.700153 0.176377 
0.699135 0.700633 0.185430 
0.098126 0.700175 0.174305 
0.098195 1.000186 0.173781 
1.602425 1.001111 0.167622 
1.602441 0.701150 0.171234 
0.914713 0.501275 0.188588 
1.001008 0.701120 0.185141 
0.641357 0.500541 0.186183 
0.655665 0.550543 0.186060 
0.899770 0.551234 0.187820 
1.051119 0.701116 0.184568 
1.601218 0.850592 0.124402 
1.598789 0.849510 0.034399 
1.599999 0.895047 0.078865 
1.600009 0.805052 0.079951 
0.299129 0.850107 0.133201 
0.300891 0.849889 0.043194 
0.300024 0.895000 0.088099 
0.300013 0.805000 0.088303 
0.127346 -0.000021 -0.005534 
0.252343 -0.000051 -0.002185 
0.377337 -0.000083 0.001159 
0.027339 0.087493 -0.008194 
0.052334 0.174993 -0.007533 
0.077334 0.262495 -0.006866 
0.102312 0.349988 -0.006190 
0.127236 0.437477 -0.005475 
0.152130 0.524948 -0.004791 
0.177037 0.612422 -0.004161 
0.151890 0.699839 -0.004653 
0.101854 0.849828 -0.005942 
0.208959 0.999822 -0.004033 
0.316021 0.999795 -0.001886 
0.422945 0.999737 0.000097 
0.529792 0.999690 0.001755 
0.636538 0.999588 0.002989 
0.743127 0.999516 0.003585 
0.849698 0.999426 0.003485 
0.956267 0.999310 0.002625 
1.062882 0.999203 0.001065 
1.169535 0.999075 -0.001103 
1.276413 0.999047 -0.003674 
1.383364 0.999021 -0.006494 
1.490432 0.998992 -0.009440 
1.597564 0.848968 -0.010603 
0.849821 0.699022 0.006025 
0.621021 0.416278 0.006236 
0.597382 0.333040 0.006169 
0.573644 0.249775 0.005876 
0.549906 0.166508 0.005458 
0.526124 0.083202 0.004983 
0.779572 0.498942 0.007952 
0.982124 0.598824 0.006847 
0.949581 0.623752 0.006619 
0.779300 0.549007 0.007389 
0.679985 0.624411 0.005824 
1.140011 0.698854 0.002944 
1.231351 0.698875 0.000916 
1.322796 0.698900 -0.001324 
1.414334 0.698916 -0.003774 
1.505942 0.698941 -0.006274 
0.122602 0.000038 0.174466 
0.247599 0.000054 0.177808 
0.372613 0.000073 0.181158 
0.022613 0.087537 0.171803 
0.047626 0.175033 0.172467 
0.072641 0.262527 0.173132 
0.097667 0.350027 0.173808 
0.122735 0.437533 0.174517 
0.147866 0.525061 0.175210 
0.172969 0.612588 0.175845 
0.148123 0.700167 0.175343 
0.098167 0.850183 0.174058 
0.205361 1.000185 0.175966 
0.312583 1.000199 0.178119 
0.419956 1.000263 0.180080 
0.527377 1.000288 0.181779 
0.634922 1.000381 0.182997 
0.742609 1.000444 0.183586 
0.850322 1.000539 0.183485 
0.958027 1.000660 0.182626 
1.065680 1.000780 0.181067 
1.173304 1.000935 0.178907 
1.280699 1.000982 0.176332 
1.388034 1.001050 0.173491 
1.495266 1.001096 0.170556 
1.602439 0.851134 0.169401 
0.850204 0.700935 0.186038 
0.617058 0.417026 0.186241 
0.593092 0.333610 0.186156 
0.569171 0.250187 0.185884 
0.545296 0.166798 0.185457 
0.521453 0.083435 0.184983 
0.778234 0.501066 0.187949 
0.982792 0.601213 0.186863 
0.950362 0.626318 0.186573 
0.777798 0.551004 0.187403 
0.677202 0.625556 0.185814 
1.143356 0.701137 0.182923 
1.235351 0.701153 0.180927 
1.327247 0.701151 0.178663 
1.419041 0.701151 0.176231 
1.510763 0.701144 0.173725 
-0.000033 0.000016 0.081161 
0.499971 -0.000012 0.094462 
0.200005 0.700001 0.086379 
0.700033 0.699987 0.095590 
0.100003 0.700006 0.084307 
0.100015 1.000004 0.083781 
1.599999 1.000046 0.077626 
1.600020 0.700052 0.081234 
0.914999 0.500021 0.098574 
1.000009 0.699976 0.095174 
0.642838 0.499971 0.096239 
0.657110 0.549970 0.096111 
0.900004 0.550024 0.097869 
1.049984 0.700019 0.094586 
1.600862 0.818616 0.111612 
1.599153 0.817848 0.047970 
1.599146 0.881490 0.047202 
1.600858 0.882249 0.110844 
0.300626 0.881737 0.056300 
0.300636 0.818100 0.056451 
0.299382 0.818255 0.120093 
0.299396 0.881895 0.119942 
1.508343 0.850583 0.126934 
1.415458 0.850571 0.129467 
1.322526 0.850547 0.131947 
1.229562 0.850517 0.134244 
1.136552 0.850492 0.136298 
1.043538 0.850470 0.137894 
0.950412 0.850431 0.138987 
0.857278 0.850364 0.139636 
0.764182 0.850319 0.139646 
0.671114 0.850261 0.139129 
0.578048 0.850194 0.138129 
0.485014 0.850160 0.136743 
0.392065 0.850135 0.135051 
1.507143 0.895044 0.081394 
1.414285 0.895037 0.083946 
1.321430 0.895024 0.086419 
1.228578 0.895013 0.088760 
1.135720 0.895000 0.090812 
1.042865 0.894988 0.092465 
0.950010 0.894983 0.093634 
0.857152 0.894977 0.094286 
0.764299 0.894981 0.094355 
0.671435 0.894983 0.093849 
0.578576 0.894993 0.092938 
0.485731 0.894998 0.091581 
0.392855 0.894989 0.089938 
1.505950 0.849505 0.036935 
1.413120 0.849499 0.039468 
1.320342 0.849499 0.041943 
1.227576 0.849500 0.044242 
1.134887 0.849511 0.046295 
1.042199 0.849510 0.047881 
0.949611 0.849532 0.049015 
0.857018 0.849583 0.049625 
0.764430 0.849650 0.049630 
0.671768 0.849725 0.049152 
0.579141 0.849774 0.048170 
0.486418 0.849817 0.046741 
0.393679 0.849859 0.045055 
1.507153 0.805042 0.082481 
1.414290 0.805037 0.085024 
1.321432 0.805020 0.087498 
1.228595 0.805018 0.089803 
1.135694 0.805002 0.091851 
1.042863 0.805005 0.093396 
0.950008 0.804983 0.094471 
0.857145 0.804978 0.095104 
0.764288 0.804969 0.094993 
0.671430 0.804977 0.094456 
0.578569 0.804975 0.093407 
0.485736 0.804993 0.091949 
0.392863 0.804992 0.090208 
1.601086 0.952341 0.118507 
1.601099 0.748725 0.120961 
1.598927 0.747746 0.040328 
1.598932 0.950840 0.038670 
1.598123 0.783698 0.010230 
1.601895 0.785392 0.150172 
1.598084 0.913561 0.007772 
1.601886 0.916390 0.148593 
1.598457 0.818378 0.022293 
1.601558 0.819765 0.137264 
1.598422 0.879601 0.020552 
1.601552 0.881718 0.136517 
1.600840 0.912908 0.109840 
1.600853 0.787834 0.111431 
1.599167 0.787077 0.048901 
1.599085 0.911145 0.044783 
1.600013 0.759246 0.080511 
1.599979 0.939885 0.077588 
0.343907 0.832823 0.116894 
1.556323 0.833133 0.108572 
0.717767 0.827644 0.117091 
0.810698 0.827647 0.117404 
0.903715 0.827721 0.117094 
0.624774 0.827596 0.116326 
1.182602 0.827759 0.113060 
0.438915 0.827569 0.113507 
0.996709 0.827740 0.116247 
0.531826 0.827581 0.115083 
1.089673 0.827753 0.114874 
1.275513 0.827777 0.110887 
1.368424 0.827793 0.108492 
1.461310 0.827812 0.105974 
0.333116 0.817153 0.101084 
1.566990 0.817320 0.092836 
0.343902 0.867313 0.116814 
1.556319 0.867627 0.108156 
0.810729 0.872631 0.116991 
0.717737 0.872603 0.116726 
0.903722 0.872654 0.116624 
0.624783 0.872591 0.116038 
0.996718 0.872680 0.115776 
0.531843 0.872571 0.114876 
0.438932 0.872573 0.113341 
1.182597 0.872738 0.112539 
1.089678 0.872722 0.114376 
1.275532 0.872779 0.110374 
1.368418 0.872788 0.107951 
1.461305 0.872804 0.105433 
0.333129 0.882901 0.100922 
1.566981 0.883065 0.092042 
0.300009 0.849960 0.088342 
0.299865 0.832217 0.095616 
0.300362 0.842562 0.070365 
0.299653 0.857004 0.106269 
0.300147 0.867983 0.081423 
1.554842 0.832463 0.053072 
0.344766 0.822208 0.071919 
0.718046 0.827358 0.072066 
0.810734 0.827299 0.072394 
0.903428 0.827245 0.072067 
0.625235 0.827389 0.071363 
1.088890 0.827259 0.069895 
0.532479 0.827391 0.070087 
0.996166 0.827238 0.071238 
1.181675 0.827247 0.068063 
0.439681 0.827420 0.068515 
1.274489 0.827251 0.065872 
1.367300 0.827263 0.063489 
1.460131 0.827266 0.060975 
1.566340 0.817027 0.068586 
0.333981 0.837789 0.056026 
0.344957 0.867175 0.061306 
1.555114 0.877589 0.063030 
0.718004 0.872362 0.071728 
0.810723 0.872329 0.071984 
0.903440 0.872305 0.071627 
0.625217 0.872378 0.071033 
1.181695 0.872272 0.067536 
0.996165 0.872286 0.070778 
1.088907 0.872267 0.069372 
0.532458 0.872405 0.069880 
0.439675 0.872427 0.068353 
1.274476 0.872264 0.065357 
1.367302 0.872272 0.062950 
1.460126 0.872276 0.060434 
0.333582 0.882839 0.076669 
1.565777 0.861780 0.047288 
0.421453 0.595015 0.001349 
0.348364 0.361806 0.000097 
0.383270 0.792943 -0.000015 
0.530481 0.716445 0.003019 
0.541273 0.555770 0.003948 
1.034892 0.847746 0.002929 
0.324448 0.680801 -0.000928 
0.440804 0.472034 0.002118 
0.296677 0.494322 -0.001304 
0.249976 0.188864 -0.002329 
0.620369 0.835368 0.003625 
0.267785 0.774569 -0.002352 
0.432817 0.698878 0.001262 
1.172899 0.846275 0.000477 
0.405245 0.208314 0.001708 
1.364355 0.845688 -0.004219 
0.511392 0.838521 0.002151 
0.497577 0.635792 0.002772 
0.479796 0.341661 0.003370 
0.593762 0.634662 0.004471 
0.316723 0.587771 -0.000945 
0.236218 0.360809 -0.002733 
0.768976 0.831763 0.004747 
0.548690 0.458263 0.004523 
1.097968 0.795282 0.002531 
0.722614 0.526855 0.006996 
0.902601 0.905229 0.003859 
0.935775 0.778728 0.004796 
0.836130 0.526710 0.007908 
0.320780 0.886880 -0.001531 
0.265091 0.638650 -0.002163 
0.465935 0.528217 0.002510 
0.375986 0.510975 0.000567 
0.400778 0.886099 0.000044 
0.597565 0.539977 0.005109 
1.020030 0.767853 0.004042 
0.628692 0.746657 0.004256 
0.990444 0.648060 0.005966 
0.176927 0.106687 -0.004251 
0.191162 0.797678 -0.003999 
1.274356 0.790083 -0.001229 
1.463979 0.791327 -0.006256 
0.180725 0.282236 -0.004168 
0.346505 0.115027 0.000258 
0.386574 0.648025 0.000459 
0.937678 0.570549 0.007424 
0.213989 0.449817 -0.003282 
0.479276 0.757927 0.001947 
0.267121 0.708361 -0.002225 
0.365262 0.439545 0.000429 
0.201399 0.895588 -0.003975 
0.292255 0.291355 -0.001263 
1.099961 0.911077 0.001233 
1.268905 0.891077 -0.002285 
0.263287 0.563361 -0.002149 
1.456552 0.903109 -0.007395 
0.573223 0.908261 0.002725 
0.460588 0.147469 0.003203 
0.376309 0.720757 0.000044 
0.486040 0.247758 0.003711 
0.442395 0.066797 0.002824 
0.292579 0.413692 -0.001331 
0.692221 0.903307 0.003914 
0.621042 0.587178 0.005202 
0.592837 0.485789 0.005309 
0.542544 0.382248 0.004707 
0.556890 0.780015 0.003147 
0.482942 0.578280 0.002691 
0.697092 0.791123 0.004692 
0.422840 0.388794 0.001899 
[...]
POINT_DATA 749
SCALARS u float 1
LOOKUP_TABLE default
0.064941
0.035716
0.029151
0.039386
0.042600
0.046063
0.089873
0.064963
0.061538
0.038230
0.045461
0.044454
0.056238
0.033918
0.064996
0.035904
0.029068
0.039293
0.042581
0.045991
0.089889
0.065111
0.061668
0.038030
0.045331
0.044447
0.056224
0.034313
0.075844
0.075824
0.079045
0.071336
0.014207
0.014317
0.013498
0.012045
0.042671
0.022744
0.018527
0.060494
0.055982
0.051481
0.046911
0.041981
0.037221
0.032890
0.035672
0.044201
0.031422
0.018251
0.010949
0.015330
0.022204
0.025754
0.025163
0.020246
0.013725
0.016884
0.030998
0.049517
0.069558
0.077577
0.043349
0.046518
0.046408
0.044609
0.042021
0.039016
0.057129
0.049392
0.047909
0.053180
0.042750
0.025319
0.017439
0.019852
0.032421
0.048253
0.042814
0.023084
0.018844
0.060611
0.056073
0.051552
0.046977
0.042112
0.037225
0.032834
0.035661
0.044160
0.031334
0.018070
0.010635
0.015349
0.022170
0.025715
0.025137
0.020221
0.013638
0.016775
0.030897
0.049615
0.069625
0.077630
0.043401
0.046573
0.046324
0.044758
0.042112
0.039135
0.057146
0.049522
0.047658
0.053319
0.042585
0.025288
0.017762
0.020276
0.032662
0.048453
0.062749
0.031676
0.025702
0.039684
0.040417
0.044147
0.087843
0.062232
0.060868
0.036733
0.044289
0.043382
0.055865
0.032554
0.072786
0.072768
0.078205
0.078216
0.014083
0.013091
0.013034
0.014015
0.058040
0.040355
0.023356
0.009578
0.011508
0.021369
0.028616
0.033026
0.033066
0.029451
0.022561
0.013380
0.005713
0.061096
0.042974
0.025422
0.008801
0.005765
0.017501
0.025801
0.030427
0.030919
0.027327
0.020856
0.011223
0.000449
0.057984
0.040291
0.023301
0.009568
0.011448
0.021265
0.028825
0.032981
0.032976
0.029639
0.022916
0.013393
0.005931
0.053378
0.035328
0.017761
0.001410
0.013140
0.024111
0.031741
0.036234
0.035446
0.031633
0.024183
0.013839
0.001481
0.084265
0.066976
0.066922
0.084183
0.071062
0.071130
0.082021
0.082102
0.073535
0.073576
0.078752
0.078805
0.080781
0.070129
0.070108
0.080744
0.067364
0.082834
0.007119
0.065423
0.032612
0.034827
0.032668
0.027213
0.005460
0.007634
0.026729
0.018482
0.017170
0.012179
0.028811
0.046573
0.007569
0.066000
0.007617
0.068365
0.031894
0.030019
0.029316
0.025174
0.023383
0.017007
0.006499
0.003650
0.013697
0.015685
0.032603
0.050389
0.008677
0.071626
0.012833
0.012574
0.012961
0.013186
0.013164
0.065395
0.006384
0.032454
0.034774
0.032485
0.027486
0.017313
0.018534
0.026669
0.005496
0.007752
0.012241
0.028795
0.046532
0.065985
0.009037
0.007715
0.069091
0.030050
0.031858
0.029341
0.025142
0.003578
0.023395
0.013660
0.017055
0.006674
0.015750
0.032579
0.050363
0.008728
0.070150
0.016506
0.015708
0.012394
0.024043
0.030645
0.023471
0.014918
0.020787
0.017587
0.023402
0.026837
0.021285
0.015394
0.015360
0.020254
0.034933
0.018355
0.023187
0.028389
0.033610
0.015706
0.025262
0.034107
0.034845
0.022073
0.050558
0.028204
0.035069
0.056793
0.016474
0.020831
0.022392
0.015014
0.011699
0.038185
0.030649
0.031417
0.043478
0.034434
0.031351
0.018874
0.048117
0.033882
0.016605
0.013693
0.053409
0.027994
0.017863
0.020809
0.015383
0.031083
0.018611
0.015794
0.023249
0.021083
0.055666
0.020993
0.027974
0.012865
0.030770
0.025984
0.018192
0.028333
0.038632
0.039717
0.036505
0.024327
0.023062
0.033881
0.020354
0.041212
0.019038
0.017699
0.038326
0.035589
0.022420
0.022265
0.026297
0.018123
0.029782
0.030094
0.028646
0.028067
0.073401
0.034864
0.015713
0.020645
0.037895
0.014088
0.014324
0.033811
0.038512
0.026804
0.036759
0.028093
0.060674
0.016420
0.034162
0.013864
0.037376
0.040420
0.014391
0.058478
0.048687
0.016628
0.015530
0.022744
0.017708
0.029264
0.014212
0.035472
0.029493
0.022362
0.013796
0.018318
0.026147
0.018825
0.027263
0.047648
0.032288
0.015179
0.038063
0.022848
0.016456
0.015872
0.012258
0.023698
0.030906
0.023464
0.014997
0.020827
0.017651
0.024006
0.027128
0.021239
0.015189
0.015396
0.020652
0.035186
0.018096
0.022976
0.028255
0.033561
0.015574
0.025383
0.034243
0.034879
0.022064
0.050576
0.028122
0.035016
0.056813
0.016337
0.020604
0.022434
0.015086
0.011399
0.038084
0.030827
0.031388
0.043380
0.034777
0.031551
0.019198
0.048342
0.034017
0.016925
0.013648
0.053444
0.028179
0.017643
0.020702
0.015489
0.031219
0.018808
0.015847
0.023607
0.020985
0.055781
0.020876
0.028209
0.012733
0.030961
0.026179
0.018276
0.028248
0.038536
0.039551
0.036501
0.024233
0.023081
0.033330
0.020290
0.041535
0.019197
0.017607
0.038051
0.035352
0.022917
0.022313
0.026307
0.018352
0.030099
0.030115
0.028714
0.028205
0.073462
0.034721
0.015542
0.020255
0.038116
0.014120
0.014365
0.033956
0.038841
0.026651
0.036715
0.028028
0.060813
0.016629
0.034204
0.013668
0.037219
0.040288
0.014368
0.058514
0.048780
0.016624
0.015412
0.022702
0.017844
0.029394
0.013979
0.035590
0.029437
0.022295
0.013635
0.018555
0.026321
0.019133
0.027184
0.047824
0.032487
0.015214
0.038030
0.022491
0.043204
0.036961
0.044479
0.040408
0.034483
0.045046
0.044992
0.034447
0.054456
0.059338
0.059376
0.044832
0.055565
0.055242
0.049454
0.042718
0.042798
0.042263
0.042360
0.040949
0.040947
0.043236
0.041841
0.041265
0.042522
0.054065
0.049463
0.049541
0.015313
0.018035
0.037226
0.001258
0.025862
0.051280
0.051956
0.026635
0.020407
0.005880
0.007372
0.017862
0.024484
0.026402
0.022905
0.014205
0.000947
0.016355
0.035751
0.055868
0.073520
0.033437
0.037814
0.079158
0.026830
0.004348
0.016725
0.047699
0.056057
0.046316
0.031243
0.041422
0.051152
0.036124
0.028250
0.059997
0.060357
0.028293
0.032031
0.036964
0.032001
0.036976
0.043426
0.043381
0.041590
0.041608
0.042155
0.020198
0.006253
0.004787
0.013012
0.009816
0.015123
0.005725
0.004291
0.022715
0.013706
0.012036
0.005515
0.004118
0.007593
0.006175
0.016510
0.015879
0.011192
0.012129
0.010761
0.010498
0.031345
0.024745
0.008886
0.010087
0.020595
0.022550
0.007566
0.026251
0.025817
0.018594
0.018482
0.022621
0.021770
0.021404
0.010469
0.009953
0.009360
0.020460
0.015817
0.020509
0.009926
0.009883
0.008311
0.008688
0.032523
0.031748
0.031499
0.023605
0.022294
0.011471
0.028854
0.028457
0.031324
0.031612
0.026711
0.026385
0.024537
0.032861
0.010357
0.020503
0.009256
0.020086
0.006908
0.005480
0.008989
0.019567
0.020636
0.011472
0.020741
0.028325
0.028034
0.011756
0.006729
0.029752
0.035781
0.033392
0.032313
0.030391
0.032216
0.032411
0.020039
0.020526
0.008733
0.021222
0.014538
0.019843
0.008466
0.023282
0.017145
0.010861
0.029471
0.018045
0.033200
0.034237
0.024756
0.024319
0.053203
0.040062
0.027082
0.027700
0.034571
0.044760
0.032097
0.020922
0.016593
0.011831
0.014669
0.019389
0.013900
0.009038
0.005381
0.021223
0.020391
0.019713
0.019901
0.020210
0.020740
0.021259
0.016394
0.020752
0.025575
0.030484
0.020275
0.015110
0.016123
0.024881
0.029900
0.034893
0.030344
0.029458
0.030840
0.025367
0.024409
0.025998
0.024743
0.018908
0.020798
0.019188
0.021254
0.021712
0.013366
0.012799
0.015820
0.013622
0.011597
0.066419
