# vtk DataFile Version 2.0
Unstructured Grid Example
ASCII
DATASET UNSTRUCTURED_GRID
POINTS 749 float
0.006777 -0.000020 -0.025567 
0.506712 -0.000339 0.012901 
0.205549 0.699577 -0.010488 
0.702465 0.698070 0.015733 
0.105452 0.699518 -0.016464 
0.105307 0.999491 -0.017988 
1.592947 0.997071 -0.035799 
1.593041 0.696980 -0.025348 
0.915668 0.496429 0.024799 
0.997319 0.696660 0.014970 
0.647242 0.498419 0.017919 
0.661502 0.548481 0.017507 
0.900492 0.546534 0.022636 
1.047024 0.696687 0.013077 
-0.006939 0.000122 0.154454 
0.493124 0.000269 0.192903 
0.194503 0.700442 0.169524 
0.697499 0.701829 0.195701 
0.094582 0.700507 0.163533 
0.094781 1.000538 0.162018 
1.607011 1.003212 0.144211 
1.607058 0.703325 0.154655 
0.914171 0.503687 0.204831 
1.002915 0.703238 0.194864 
0.638519 0.501564 0.197877 
0.652870 0.551569 0.197521 
0.899336 0.553568 0.202610 
1.053235 0.703226 0.193207 
1.603521 0.851712 0.104359 
1.596499 0.848583 0.014350 
1.599997 0.895136 0.057806 
1.600026 0.805150 0.060946 
0.297481 0.850309 0.129800 
0.302576 0.849680 0.039778 
0.300071 0.894999 0.084503 
0.300037 0.805000 0.085094 
0.131782 -0.000060 -0.016001 
0.256774 -0.000148 -0.006317 
0.381757 -0.000239 0.003350 
0.031764 0.087479 -0.023692 
0.056748 0.174980 -0.021779 
0.081747 0.262485 -0.019852 
0.106685 0.349967 -0.017899 
0.131465 0.437432 -0.015829 
0.156160 0.524849 -0.013851 
0.180888 0.612274 -0.012030 
0.155464 0.699535 -0.013454 
0.105360 0.849502 -0.017179 
0.212395 0.999485 -0.011659 
0.319303 0.999407 -0.005453 
0.425814 0.999241 0.000280 
0.532099 0.999105 0.005073 
0.638097 0.998809 0.008642 
0.743638 0.998600 0.010366 
0.849128 0.998341 0.010076 
0.954610 0.998006 0.007590 
1.060227 0.997697 0.003078 
1.165954 0.997324 -0.003188 
1.272330 0.997245 -0.010623 
1.378920 0.997170 -0.018777 
1.485845 0.997085 -0.027293 
1.592958 0.847017 -0.030657 
0.849484 0.697172 0.017420 
0.624755 0.415544 0.018031 
0.601437 0.332485 0.017836 
0.577834 0.249350 0.016990 
0.554230 0.166209 0.015779 
0.530502 0.082954 0.014408 
0.780790 0.496942 0.022991 
0.981413 0.596600 0.019797 
0.948790 0.621391 0.019138 
0.780678 0.547128 0.021365 
0.682657 0.623298 0.016839 
1.136880 0.696688 0.008512 
1.227602 0.696746 0.002650 
1.318628 0.696820 -0.003829 
1.409922 0.696866 -0.010911 
1.501419 0.696937 -0.018139 
0.118067 0.000110 0.164000 
0.243057 0.000156 0.173662 
0.368097 0.000212 0.183348 
0.018098 0.087608 0.156299 
0.043135 0.175096 0.158219 
0.068179 0.262578 0.160143 
0.093254 0.350077 0.162096 
0.118452 0.437595 0.164147 
0.143831 0.525176 0.166151 
0.169128 0.612755 0.167988 
0.144574 0.700482 0.166536 
0.094700 0.850528 0.162821 
0.201992 1.000536 0.168336 
0.309362 1.000574 0.174561 
0.417171 1.000760 0.180231 
0.525118 1.000834 0.185144 
0.633424 1.001102 0.188665 
0.742141 1.001284 0.190370 
0.850932 1.001559 0.190076 
0.959699 1.001909 0.187593 
1.068316 1.002256 0.183086 
1.176850 1.002703 0.176841 
1.284722 1.002838 0.169395 
1.392422 1.003037 0.161182 
1.499823 1.003169 0.152695 
1.607052 0.853278 0.149354 
0.850590 0.702704 0.197459 
0.613296 0.417705 0.198046 
0.589032 0.334133 0.197799 
0.564902 0.250541 0.197012 
0.540901 0.167046 0.195777 
0.516996 0.083628 0.194406 
0.776919 0.503083 0.202982 
0.983344 0.603508 0.199844 
0.951046 0.628811 0.199004 
0.776336 0.552903 0.201405 
0.674613 0.626608 0.196810 
1.146552 0.703286 0.188451 
1.239168 0.703333 0.182680 
1.331496 0.703327 0.176135 
1.423532 0.703328 0.169103 
1.515359 0.703309 0.161858 
-0.000096 0.000047 0.064443 
0.499915 -0.000035 0.102901 
0.200013 0.700004 0.079532 
0.700094 0.699964 0.106162 
0.100008 0.700017 0.073538 
0.100044 1.000011 0.072020 
1.599998 1.000134 0.054223 
1.600057 0.700151 0.064654 
0.914998 0.500061 0.114791 
1.000025 0.699932 0.104961 
0.642800 0.499916 0.108038 
0.657048 0.549912 0.107669 
0.900011 0.550071 0.112753 
1.049953 0.700055 0.103259 
1.602493 0.819440 0.092307 
1.597551 0.817219 0.028660 
1.597530 0.880866 0.026438 
1.602482 0.883060 0.090085 
0.301810 0.881581 0.052743 
0.301838 0.817948 0.053180 
0.298214 0.818398 0.116826 
0.298253 0.882038 0.116390 
1.510614 0.851686 0.111678 
1.417676 0.851652 0.119002 
1.324601 0.851581 0.126172 
1.231436 0.851496 0.132815 
1.138136 0.851422 0.138753 
1.044824 0.851360 0.143368 
0.951190 0.851246 0.146527 
0.857532 0.851054 0.148404 
0.763986 0.850921 0.148433 
0.670520 0.850753 0.146937 
0.577057 0.850560 0.144046 
0.483691 0.850462 0.140039 
0.390568 0.850390 0.135147 
1.507143 0.895127 0.065117 
1.414283 0.895106 0.072497 
1.321432 0.895070 0.079646 
1.228590 0.895038 0.086416 
1.135731 0.894999 0.092348 
1.042879 0.894967 0.097128 
0.950028 0.894952 0.100508 
0.857168 0.894933 0.102392 
0.764324 0.894946 0.102593 
0.671448 0.894950 0.101130 
0.578584 0.894979 0.098494 
0.485762 0.894993 0.094571 
0.392852 0.894968 0.089820 
1.503694 0.848569 0.021681 
1.410914 0.848553 0.029005 
1.318288 0.848553 0.036162 
1.225693 0.848554 0.042808 
1.133321 0.848585 0.048743 
1.040954 0.848583 0.053329 
0.948877 0.848646 0.056607 
0.856781 0.848793 0.058373 
0.764702 0.848987 0.058386 
0.672410 0.849206 0.057005 
0.580217 0.849347 0.054164 
0.487750 0.849471 0.050033 
0.395233 0.849592 0.045159 
1.507172 0.805120 0.068260 
1.414299 0.805108 0.075612 
1.321438 0.805059 0.082766 
1.228639 0.805051 0.089432 
1.135655 0.805006 0.095351 
1.042874 0.805015 0.099820 
0.950022 0.804951 0.102928 
0.857149 0.804936 0.104757 
0.764292 0.804910 0.104436 
0.671433 0.804935 0.102884 
0.578565 0.804929 0.099849 
0.485777 0.804980 0.095636 
0.392874 0.804978 0.090602 
1.603140 0.953332 0.096174 
1.603178 0.749751 0.103269 
1.596899 0.746919 0.022634 
1.596911 0.950046 0.016347 
1.594573 0.782194 -0.008306 
1.605480 0.787092 0.131641 
1.594460 0.912058 -0.013725 
1.605454 0.918060 0.127077 
1.595537 0.817164 0.002959 
1.604503 0.821172 0.117936 
1.595437 0.878372 -0.000179 
1.604489 0.883115 0.115775 
1.602428 0.913699 0.088392 
1.602466 0.788648 0.092834 
1.597591 0.786461 0.030300 
1.597354 0.910474 0.023352 
1.600037 0.759345 0.062564 
1.599938 0.939956 0.055519 
0.342930 0.832960 0.115274 
1.557736 0.833858 0.091215 
0.717598 0.827915 0.125773 
0.810668 0.827925 0.126678 
0.903986 0.828138 0.125784 
0.624347 0.827779 0.123561 
1.183471 0.828249 0.114118 
0.438214 0.827699 0.115412 
0.997240 0.828195 0.123334 
0.531226 0.827734 0.119968 
1.090405 0.828231 0.119364 
1.276485 0.828302 0.107836 
1.369496 0.828346 0.100912 
1.462436 0.828403 0.093631 
0.332686 0.817207 0.099115 
1.567621 0.817690 0.075267 
0.342916 0.867433 0.115044 
1.557724 0.868341 0.090010 
0.810757 0.872880 0.125484 
0.717510 0.872799 0.124718 
0.904008 0.872945 0.124424 
0.624372 0.872763 0.122731 
0.997265 0.873021 0.121972 
0.531275 0.872707 0.119369 
0.438262 0.872710 0.114932 
1.183456 0.873188 0.112613 
1.090421 0.873143 0.117924 
1.276537 0.873307 0.106352 
1.369478 0.873333 0.099347 
1.462422 0.873380 0.092067 
0.332723 0.882949 0.098647 
1.567596 0.883426 0.072973 
0.300025 0.849957 0.084923 
0.299610 0.832248 0.092276 
0.301047 0.842475 0.066981 
0.298998 0.857080 0.102819 
0.300426 0.867951 0.077927 
1.553454 0.831921 0.035713 
0.345414 0.822128 0.070349 
0.718404 0.827091 0.080700 
0.810770 0.826920 0.081651 
0.903157 0.826763 0.080704 
0.625680 0.827178 0.078669 
1.088143 0.826804 0.074423 
0.533115 0.827184 0.074979 
0.995669 0.826744 0.078309 
1.180791 0.826769 0.069127 
0.440429 0.827267 0.070434 
1.273521 0.826781 0.062793 
1.366245 0.826816 0.055904 
1.459027 0.826824 0.048636 
1.565742 0.816842 0.051017 
0.335187 0.837625 0.053948 
0.345965 0.867032 0.059520 
1.554240 0.877286 0.044646 
0.718282 0.872102 0.079725 
0.810740 0.872005 0.080466 
0.903192 0.871937 0.079431 
0.625628 0.872146 0.077715 
1.180848 0.871841 0.067603 
0.995667 0.871880 0.076978 
1.088190 0.871826 0.072913 
0.533054 0.872225 0.074381 
0.440412 0.872288 0.069965 
1.273486 0.871818 0.061304 
1.366253 0.871841 0.054345 
1.459013 0.871853 0.047069 
0.334031 0.882770 0.074389 
1.564115 0.861127 0.028684 
0.424998 0.594502 0.003900 
0.352539 0.361568 0.000281 
0.386531 0.792422 -0.000044 
0.533254 0.715584 0.008728 
0.544475 0.554960 0.011414 
1.032622 0.845943 0.008470 
0.327992 0.680408 -0.002684 
0.444598 0.471553 0.006123 
0.300654 0.494093 -0.003771 
0.254388 0.188765 -0.006734 
0.622145 0.834390 0.010482 
0.271283 0.774200 -0.006800 
0.436104 0.698311 0.003649 
1.169391 0.844370 0.001381 
0.409562 0.208089 0.004938 
1.359984 0.843731 -0.012200 
0.514002 0.837775 0.006219 
0.500763 0.635067 0.008014 
0.483841 0.341205 0.009745 
0.596519 0.633629 0.012928 
0.320492 0.587444 -0.002733 
0.240528 0.360734 -0.007902 
0.769479 0.830458 0.013726 
0.552213 0.457478 0.013076 
1.095145 0.793357 0.007317 
0.724641 0.525360 0.020228 
0.901497 0.903823 0.011157 
0.934493 0.776888 0.013866 
0.836879 0.524549 0.022865 
0.324049 0.886435 -0.004425 
0.268833 0.638397 -0.006253 
0.469496 0.527611 0.007258 
0.379823 0.510613 0.001638 
0.403849 0.885571 0.000127 
0.600621 0.539087 0.014771 
1.017986 0.765842 0.011688 
0.630713 0.745563 0.012304 
0.989146 0.645782 0.017249 
0.181344 0.106646 -0.012291 
0.194691 0.797352 -0.011562 
1.270378 0.788067 -0.003553 
1.459462 0.789340 -0.018087 
0.185122 0.282177 -0.012051 
0.350900 0.114888 0.000746 
0.390084 0.647537 0.001328 
0.937506 0.568248 0.021465 
0.218123 0.449734 -0.009489 
0.482205 0.757211 0.005629 
0.270715 0.708045 -0.006435 
0.369267 0.439224 0.001239 
0.204856 0.895239 -0.011492 
0.296599 0.291237 -0.003652 
1.096921 0.909336 0.003565 
1.264889 0.889189 -0.006606 
0.267158 0.563153 -0.006214 
1.452012 0.901182 -0.021382 
0.575256 0.907489 0.007878 
0.464922 0.147199 0.009260 
0.379697 0.720245 0.000128 
0.490260 0.247400 0.010730 
0.446794 0.066591 0.008166 
0.296718 0.413537 -0.003847 
0.693299 0.902291 0.011315 
0.623895 0.586174 0.015040 
0.596059 0.484919 0.015351 
0.546409 0.381609 0.013609 
0.559298 0.779132 0.009099 
0.486319 0.577613 0.007781 
0.698213 0.789907 0.013565 
0.426886 0.388428 0.005490 
[...]
POINT_DATA 749
SCALARS u float 1
LOOKUP_TABLE default
0.064941
0.035716
0.029151
0.039386
0.042600
0.046063
0.089873
0.064963
0.061538
0.038230
0.045461
0.044454
0.056238
0.033918
0.064996
0.035904
0.029068
0.039293
0.042581
0.045991
0.089889
0.065111
0.061668
0.038030
0.045331
0.044447
0.056224
0.034313
0.075844
0.075824
0.079045
0.071336
0.014207
0.014317
0.013498
0.012045
0.042671
0.022744
0.018527
0.060494
0.055982
0.051481
0.046911
0.041981
0.037221
0.032890
0.035672
0.044201
0.031422
0.018251
0.010949
0.015330
0.022204
0.025754
0.025163
0.020246
0.013725
0.016884
0.030998
0.049517
0.069558
0.077577
0.043349
0.046518
0.046408
0.044609
0.042021
0.039016
0.057129
0.049392
0.047909
0.053180
0.042750
0.025319
0.017439
0.019852
0.032421
0.048253
0.042814
0.023084
0.018844
0.060611
0.056073
0.051552
0.046977
0.042112
0.037225
0.032834
0.035661
0.044160
0.031334
0.018070
0.010635
0.015349
0.022170
0.025715
0.025137
0.020221
0.013638
0.016775
0.030897
0.049615
0.069625
0.077630
0.043401
0.046573
0.046324
0.044758
0.042112
0.039135
0.057146
0.049522
0.047658
0.053319
0.042585
0.025288
0.017762
0.020276
0.032662
0.048453
0.062749
0.031676
0.025702
0.039684
0.040417
0.044147
0.087843
0.062232
0.060868
0.036733
0.044289
0.043382
0.055865
0.032554
0.072786
0.072768
0.078205
0.078216
0.014083
0.013091
0.013034
0.014015
0.058040
0.040355
0.023356
0.009578
0.011508
0.021369
0.028616
0.033026
0.033066
0.029451
0.022561
0.013380
0.005713
0.061096
0.042974
0.025422
0.008801
0.005765
0.017501
0.025801
0.030427
0.030919
0.027327
0.020856
0.011223
0.000449
0.057984
0.040291
0.023301
0.009568
0.011448
0.021265
0.028825
0.032981
0.032976
0.029639
0.022916
0.013393
0.005931
0.053378
0.035328
0.017761
0.001410
0.013140
0.024111
0.031741
0.036234
0.035446
0.031633
0.024183
0.013839
0.001481
0.084265
0.066976
0.066922
0.084183
0.071062
0.071130
0.082021
0.082102
0.073535
0.073576
0.078752
0.078805
0.080781
0.070129
0.070108
0.080744
0.067364
0.082834
0.007119
0.065423
0.032612
0.034827
0.032668
0.027213
0.005460
0.007634
0.026729
0.018482
0.017170
0.012179
0.028811
0.046573
0.007569
0.066000
0.007617
0.068365
0.031894
0.030019
0.029316
0.025174
0.023383
0.017007
0.006499
0.003650
0.013697
0.015685
0.032603
0.050389
0.008677
0.071626
0.012833
0.012574
0.012961
0.013186
0.013164
0.065395
0.006384
0.032454
0.034774
0.032485
0.027486
0.017313
0.018534
0.026669
0.005496
0.007752
0.012241
0.028795
0.046532
0.065985
0.009037
0.007715
0.069091
0.030050
0.031858
0.029341
0.025142
0.003578
0.023395
0.013660
0.017055
0.006674
0.015750
0.032579
0.050363
0.008728
0.070150
0.016506
0.015708
0.012394
0.024043
0.030645
0.023471
0.014918
0.020787
0.017587
0.023402
0.026837
0.021285
0.015394
0.015360
0.020254
0.034933
0.018355
0.023187
0.028389
0.033610
0.015706
0.025262
0.034107
0.034845
0.022073
0.050558
0.028204
0.035069
0.056793
0.016474
0.020831
0.022392
0.015014
0.011699
0.038185
0.030649
0.031417
0.043478
0.034434
0.031351
0.018874
0.048117
0.033882
0.016605
0.013693
0.053409
0.027994
0.017863
0.020809
0.015383
0.031083
0.018611
0.015794
0.023249
0.021083
0.055666
0.020993
0.027974
0.012865
0.030770
0.025984
0.018192
0.028333
0.038632
0.039717
0.036505
0.024327
0.023062
0.033881
0.020354
0.041212
0.019038
0.017699
0.038326
0.035589
0.022420
0.022265
0.026297
0.018123
0.029782
0.030094
0.028646
0.028067
0.073401
0.034864
0.015713
0.020645
0.037895
0.014088
0.014324
0.033811
0.038512
0.026804
0.036759
0.028093
0.060674
0.016420
0.034162
0.013864
0.037376
0.040420
0.014391
0.058478
0.048687
0.016628
0.015530
0.022744
0.017708
0.029264
0.014212
0.035472
0.029493
0.022362
0.013796
0.018318
0.026147
0.018825
0.027263
0.047648
0.032288
0.015179
0.038063
0.022848
0.016456
0.015872
0.012258
0.023698
0.030906
0.023464
0.014997
0.020827
0.017651
0.024006
0.027128
0.021239
0.015189
0.015396
0.020652
0.035186
0.018096
0.022976
0.028255
0.033561
0.015574
0.025383
0.034243
0.034879
0.022064
0.050576
0.028122
0.035016
0.056813
0.016337
0.020604
0.022434
0.015086
0.011399
0.038084
0.030827
0.031388
0.043380
0.034777
0.031551
0.019198
0.048342
0.034017
0.016925
0.013648
0.053444
0.028179
0.017643
0.020702
0.015489
0.031219
0.018808
0.015847
0.023607
0.020985
0.055781
0.020876
0.028209
0.012733
0.030961
0.026179
0.018276
0.028248
0.038536
0.039551
0.036501
0.024233
0.023081
0.033330
0.020290
0.041535
0.019197
0.017607
0.038051
0.035352
0.022917
0.022313
0.026307
0.018352
0.030099
0.030115
0.028714
0.028205
0.073462
0.034721
0.015542
0.020255
0.038116
0.014120
0.014365
0.033956
0.038841
0.026651
0.036715
0.028028
0.060813
0.016629
0.034204
0.013668
0.037219
0.040288
0.014368
0.058514
0.048780
0.016624
0.015412
0.022702
0.017844
0.029394
0.013979
0.035590
0.029437
0.022295
0.013635
0.018555
0.026321
0.019133
0.027184
0.047824
0.032487
0.015214
0.038030
0.022491
0.043204
0.036961
0.044479
0.040408
0.034483
0.045046
0.044992
0.034447
0.054456
0.059338
0.059376
0.044832
0.055565
0.055242
0.049454
0.042718
0.042798
0.042263
0.042360
0.040949
0.040947
0.043236
0.041841
0.041265
0.042522
0.054065
0.049463
0.049541
0.015313
0.018035
0.037226
0.001258
0.025862
0.051280
0.051956
0.026635
0.020407
0.005880
0.007372
0.017862
0.024484
0.026402
0.022905
0.014205
0.000947
0.016355
0.035751
0.055868
0.073520
0.033437
0.037814
0.079158
0.026830
0.004348
0.016725
0.047699
0.056057
0.046316
0.031243
0.041422
0.051152
0.036124
0.028250
0.059997
0.060357
0.028293
0.032031
0.036964
0.032001
0.036976
0.043426
0.043381
0.041590
0.041608
0.042155
0.020198
0.006253
0.004787
0.013012
0.009816
0.015123
0.005725
0.004291
0.022715
0.013706
0.012036
0.005515
0.004118
0.007593
0.006175
0.016510
0.015879
0.011192
0.012129
0.010761
0.010498
0.031345
0.024745
0.008886
0.010087
0.020595
0.022550
0.007566
0.026251
0.025817
0.018594
0.018482
0.022621
0.021770
0.021404
0.010469
0.009953
0.009360
0.020460
0.015817
0.020509
0.009926
0.009883
0.008311
0.008688
0.032523
0.031748
0.031499
0.023605
0.022294
0.011471
0.028854
0.028457
0.031324
0.031612
0.026711
0.026385
0.024537
0.032861
0.010357
0.020503
0.009256
0.020086
0.006908
0.005480
0.008989
0.019567
0.020636
0.011472
0.020741
0.028325
0.028034
0.011756
0.006729
0.029752
0.035781
0.033392
0.032313
0.030391
0.032216
0.032411
0.020039
0.020526
0.008733
0.021222
0.014538
0.019843
0.008466
0.023282
0.017145
0.010861
0.029471
0.018045
0.033200
0.034237
0.024756
0.024319
0.053203
0.040062
0.027082
0.027700
0.034571
0.044760
0.032097
0.020922
0.016593
0.011831
0.014669
0.019389
0.013900
0.009038
0.005381
0.021223
0.020391
0.019713
0.019901
0.020210
0.020740
0.021259
0.016394
0.020752
0.025575
0.030484
0.020275
0.015110
0.016123
0.024881
0.029900
0.034893
0.030344
0.029458
0.030840
0.025367
0.024409
0.025998
0.024743
0.018908
0.020798
0.019188
0.021254
0.021712
0.013366
0.012799
0.015820
0.013622
0.011597
0.066419
