# vtk DataFile Version 2.0
Unstructured Grid Example
ASCII
DATASET UNSTRUCTURED_GRID
POINTS 749 float
-0.000175 0.003754 -0.007126 
0.500062 0.004933 -0.012806 
0.199307 0.696530 0.003703 
0.699631 0.698191 0.001331 
0.099672 0.695446 0.003861 
0.100630 0.995160 -0.014972 
1.598682 1.007578 0.009003 
1.600140 0.707600 -0.011593 
0.912755 0.498912 -0.000642 
0.999419 0.700004 -0.001939 
0.641845 0.499809 0.004681 
0.656170 0.549564 0.004206 
0.898055 0.549006 -0.000411 
1.049426 0.700256 -0.002586 
0.002125 -0.004794 0.172895 
0.501701 -0.003776 0.167205 
0.200001 0.704239 0.183777 
0.699684 0.701490 0.181419 
0.099738 0.705629 0.183827 
0.099440 1.006018 0.165045 
1.599254 0.995603 0.189012 
1.601619 0.695608 0.168402 
0.916240 0.499037 0.179389 
1.000502 0.697457 0.177927 
0.643140 0.500851 0.184802 
0.657560 0.550983 0.184220 
0.901394 0.549099 0.179614 
1.050679 0.697176 0.177263 
1.600191 0.848577 0.133699 
1.599645 0.854622 0.043710 
1.599649 0.896604 0.091887 
1.600211 0.806603 0.085544 
0.299662 0.852667 0.130469 
0.300059 0.848131 0.040536 
0.299884 0.895408 0.082855 
0.299793 0.805335 0.088215 
0.124842 0.004010 -0.008680 
0.249878 0.004243 -0.010212 
0.374997 0.004654 -0.011640 
0.024588 0.091278 -0.003187 
0.049377 0.178748 0.000815 
0.074083 0.266069 0.004758 
0.098678 0.352957 0.008090 
0.123273 0.439395 0.010277 
0.148307 0.525260 0.010218 
0.173379 0.611185 0.008069 
0.149700 0.695487 0.003762 
0.100144 0.845225 -0.005449 
0.207798 0.995185 -0.014082 
0.315066 0.995672 -0.012701 
0.422496 0.996309 -0.010826 
0.529869 0.996841 -0.008715 
0.637245 0.997414 -0.006541 
0.744508 0.998174 -0.003602 
0.851500 0.999037 -0.000615 
0.958281 1.000079 0.002289 
1.064892 1.001320 0.004953 
1.171304 1.002805 0.006820 
1.277969 1.004164 0.008221 
1.384626 1.005559 0.009041 
1.491560 1.006761 0.009205 
1.599381 0.857675 -0.001302 
0.849648 0.698905 -0.000206 
0.618414 0.418408 0.004135 
0.594852 0.336354 0.002244 
0.571082 0.253928 -0.000898 
0.547482 0.171303 -0.004648 
0.523772 0.088183 -0.008766 
0.776966 0.499476 0.002510 
0.980997 0.599300 -0.002240 
0.948566 0.624279 -0.001625 
0.776740 0.549566 0.002443 
0.677897 0.623456 0.003069 
1.141449 0.702064 -0.004658 
1.233197 0.703393 -0.006392 
1.324962 0.704666 -0.008046 
1.416739 0.705905 -0.009502 
1.508457 0.706873 -0.010690 
0.127081 -0.004436 0.171349 
0.252003 -0.004093 0.169820 
0.376811 -0.003902 0.168395 
0.026890 0.082792 0.176774 
0.051661 0.170444 0.180806 
0.076494 0.258333 0.184734 
0.101458 0.346689 0.188072 
0.126578 0.435436 0.190212 
0.151367 0.524991 0.190430 
0.175993 0.614423 0.188019 
0.149719 0.705447 0.183808 
0.099590 0.855922 0.174532 
0.206521 1.005732 0.165921 
0.313602 1.005144 0.167273 
0.420562 1.004222 0.169190 
0.527676 1.003424 0.171234 
0.634738 1.002282 0.173464 
0.741851 1.000775 0.176413 
0.849004 0.999093 0.179455 
0.956099 0.997515 0.182388 
1.063221 0.996210 0.185078 
1.170554 0.995185 0.186932 
1.277662 0.994807 0.188291 
1.384887 0.994790 0.189161 
1.492093 0.995016 0.189247 
1.600463 0.845510 0.178696 
0.849698 0.699259 0.179736 
0.619358 0.415942 0.184279 
0.595719 0.331595 0.182307 
0.572305 0.247347 0.179161 
0.548799 0.163313 0.175448 
0.525259 0.079709 0.171213 
0.779864 0.499982 0.182562 
0.983774 0.598332 0.177788 
0.951311 0.623483 0.178397 
0.779897 0.549893 0.182425 
0.678520 0.626592 0.183149 
1.142575 0.695709 0.175232 
1.234549 0.695115 0.173519 
1.326477 0.694805 0.171862 
1.418256 0.694818 0.170423 
1.509946 0.695078 0.169329 
0.000971 -0.000549 0.082896 
0.500876 0.000567 0.077214 
0.199679 0.700380 0.094121 
0.699648 0.699823 0.091239 
0.099732 0.700515 0.093749 
0.100021 1.000600 0.075094 
1.598953 1.001599 0.098959 
1.600879 0.701598 0.078463 
0.914483 0.498951 0.089388 
0.999989 0.698764 0.087935 
0.642526 0.500304 0.094866 
0.656832 0.550182 0.094420 
0.899713 0.549013 0.089601 
1.050043 0.698832 0.087199 
1.600329 0.817674 0.118275 
1.599928 0.821876 0.054633 
1.599537 0.885515 0.059141 
1.599898 0.881301 0.122773 
0.300102 0.880613 0.051836 
0.299923 0.817057 0.055608 
0.299696 0.820071 0.119202 
0.299719 0.883852 0.115447 
1.507317 0.848036 0.134273 
1.414455 0.847520 0.134837 
1.321574 0.847219 0.135345 
1.228624 0.847113 0.135576 
1.135732 0.847251 0.135676 
1.042707 0.847560 0.135544 
0.949708 0.848223 0.135203 
0.856835 0.849042 0.134591 
0.763851 0.849967 0.133861 
0.670994 0.850695 0.133176 
0.578130 0.851412 0.132240 
0.485296 0.851941 0.131581 
0.392429 0.852263 0.130961 
1.506791 0.895969 0.092327 
1.413947 0.895340 0.092714 
1.321127 0.894692 0.092995 
1.228350 0.894209 0.092724 
1.135567 0.893858 0.092373 
1.042767 0.893690 0.091749 
0.949970 0.893766 0.090776 
0.857145 0.894035 0.089589 
0.764311 0.894394 0.088295 
0.671462 0.894774 0.087080 
0.578570 0.895044 0.085728 
0.485668 0.895211 0.084545 
0.392815 0.895373 0.083520 
1.506812 0.853876 0.044271 
1.413960 0.853121 0.044825 
1.321125 0.852152 0.045332 
1.228404 0.851316 0.045546 
1.135615 0.850427 0.045702 
1.042929 0.849781 0.045547 
0.950221 0.849319 0.045161 
0.857406 0.849061 0.044546 
0.764639 0.848854 0.043861 
0.671788 0.848852 0.043128 
0.578803 0.848663 0.042198 
0.485905 0.848567 0.041564 
0.393005 0.848364 0.040986 
1.507343 0.805956 0.086207 
1.414460 0.805354 0.087035 
1.321573 0.804719 0.087795 
1.228682 0.804139 0.088499 
1.135745 0.803918 0.089071 
1.042866 0.803717 0.089458 
0.949987 0.803777 0.089695 
0.857085 0.804048 0.089641 
0.764247 0.804505 0.089392 
0.671275 0.804885 0.089203 
0.578405 0.805079 0.088833 
0.485491 0.805243 0.088490 
0.392634 0.805328 0.088272 
1.599428 0.950745 0.136051 
1.600884 0.747106 0.122002 
1.600260 0.752457 0.041375 
1.599134 0.955471 0.056170 
1.599836 0.790749 0.014212 
1.600849 0.781427 0.154146 
1.599196 0.920666 0.022285 
1.599816 0.912441 0.163200 
1.599745 0.824450 0.029036 
1.600496 0.816768 0.144013 
1.599413 0.885745 0.032335 
1.600029 0.878732 0.148359 
1.599671 0.912026 0.124248 
1.600551 0.786925 0.115604 
1.600109 0.791073 0.053097 
1.599376 0.915344 0.059110 
1.600495 0.760786 0.082432 
1.599343 0.941497 0.094191 
0.344122 0.834320 0.114525 
1.555773 0.832226 0.115497 
0.717625 0.827430 0.111403 
0.810524 0.827009 0.111905 
0.903437 0.826177 0.112265 
0.624714 0.828025 0.110921 
1.182231 0.825591 0.112230 
0.438970 0.828630 0.109809 
0.996388 0.825764 0.112437 
0.531857 0.828364 0.110319 
1.089328 0.825560 0.112463 
1.275130 0.825843 0.111761 
1.368047 0.826169 0.111207 
1.460915 0.826713 0.110582 
0.333134 0.817933 0.099743 
1.566869 0.817701 0.098715 
0.344195 0.868957 0.112388 
1.555547 0.866726 0.117947 
0.810488 0.871865 0.111605 
0.717554 0.872525 0.110647 
0.903300 0.871240 0.112520 
0.624772 0.873015 0.109487 
0.996200 0.870766 0.113310 
0.531880 0.873427 0.108489 
0.439018 0.873643 0.107556 
1.182019 0.870594 0.114157 
1.089157 0.870542 0.113863 
1.274884 0.870788 0.114215 
1.367765 0.871194 0.113952 
1.460606 0.871715 0.113541 
0.333187 0.883847 0.095854 
1.566450 0.883455 0.103345 
0.299844 0.850358 0.085680 
0.299799 0.832937 0.093952 
0.299911 0.842124 0.068115 
0.299775 0.858277 0.103185 
0.299904 0.868045 0.077729 
1.555452 0.835864 0.060015 
0.344302 0.821819 0.070113 
0.717962 0.826671 0.066463 
0.810884 0.826501 0.066886 
0.903651 0.826639 0.067364 
0.625073 0.826872 0.065859 
1.089231 0.827041 0.067343 
0.532122 0.826940 0.065309 
0.996434 0.826672 0.067386 
1.182084 0.827465 0.067258 
0.439242 0.826927 0.064854 
1.274887 0.828047 0.066760 
1.367754 0.828840 0.066212 
1.460623 0.829585 0.065584 
1.566716 0.819294 0.074492 
0.333337 0.836698 0.053547 
0.344466 0.866301 0.056939 
1.555208 0.880210 0.073680 
0.718103 0.871642 0.065641 
0.810899 0.871564 0.066590 
0.903758 0.871539 0.067518 
0.625163 0.871866 0.064560 
1.182014 0.872454 0.069133 
0.996563 0.871665 0.068296 
1.089251 0.871979 0.068859 
0.532291 0.871850 0.063489 
0.439355 0.871855 0.062531 
1.274796 0.873060 0.069160 
1.367576 0.873806 0.068955 
1.460406 0.874582 0.068532 
0.333312 0.882697 0.071619 
1.566292 0.865677 0.056914 
0.418465 0.594141 0.005722 
0.345174 0.364661 0.005293 
0.381510 0.789710 -0.001289 
0.528581 0.714671 0.001618 
0.538587 0.555690 0.005165 
1.036327 0.849290 0.000490 
0.321883 0.678181 0.003724 
0.437678 0.473189 0.006189 
0.293175 0.494691 0.008012 
0.247051 0.193042 -0.000892 
0.619889 0.833497 -0.001915 
0.265717 0.770788 -0.000382 
0.430449 0.696615 0.002622 
1.174533 0.849940 0.000619 
0.402456 0.212536 -0.001583 
1.366133 0.851947 -0.000111 
0.510378 0.835928 -0.002908 
0.495023 0.634596 0.004184 
0.476887 0.344844 0.003367 
0.591539 0.633797 0.003452 
0.313490 0.586688 0.007004 
0.232747 0.363839 0.006675 
0.769205 0.830790 -0.000913 
0.545837 0.459757 0.005180 
1.099021 0.797666 -0.001003 
0.720056 0.527251 0.003381 
0.904301 0.905435 0.000224 
0.936282 0.779350 -0.000606 
0.833711 0.527159 0.001149 
0.319630 0.882930 -0.006481 
0.261936 0.636494 0.006199 
0.462925 0.528523 0.006100 
0.372688 0.511350 0.007059 
0.399837 0.882575 -0.005921 
0.595020 0.540190 0.004789 
1.020739 0.769213 -0.001150 
0.627467 0.745058 0.000446 
0.990038 0.648899 -0.002102 
0.174169 0.110739 -0.004086 
0.189206 0.793352 -0.001866 
1.275973 0.795075 -0.002591 
1.465927 0.798843 -0.004248 
0.177421 0.285831 0.004351 
0.343798 0.119503 -0.005596 
0.383790 0.646292 0.004677 
0.935982 0.570854 -0.001256 
0.210310 0.451063 0.009037 
0.477591 0.755481 0.000237 
0.264651 0.705235 0.002908 
0.362025 0.441121 0.006834 
0.200009 0.890995 -0.007879 
0.289059 0.295267 0.003223 
1.101996 0.913739 0.002751 
1.270844 0.896054 0.002637 
0.259892 0.562380 0.008077 
1.458270 0.910532 0.003100 
0.573315 0.905844 -0.004789 
0.458129 0.152135 -0.005068 
0.373964 0.718138 0.001936 
0.483375 0.251839 -0.000375 
0.439969 0.071688 -0.008969 
0.289124 0.415672 0.007296 
0.692909 0.901663 -0.002968 
0.618622 0.586838 0.004025 
0.590133 0.486707 0.005012 
0.539806 0.384864 0.003959 
0.555686 0.777937 -0.000501 
0.480129 0.577821 0.005419 
0.696621 0.789924 -0.000559 
0.419725 0.391289 0.005272 
[...]
POINT_DATA 749
SCALARS u float 1
LOOKUP_TABLE default
0.043351
0.073847
0.027562
0.012247
0.032177
0.084739
0.063723
0.074601
0.013862
0.010894
0.025793
0.023348
0.011960
0.014321
0.047519
0.072369
0.030551
0.011204
0.036657
0.086803
0.054107
0.067302
0.009068
0.017862
0.026286
0.023427
0.009167
0.021476
0.010425
0.025894
0.013458
0.025506
0.028350
0.026044
0.038515
0.009837
0.051458
0.059513
0.067462
0.026690
0.020909
0.032386
0.046893
0.056996
0.055754
0.044848
0.031655
0.038994
0.080163
0.072329
0.061818
0.050368
0.038734
0.023477
0.010146
0.013762
0.027774
0.039689
0.049696
0.057415
0.061855
0.042026
0.006288
0.024383
0.020356
0.021761
0.035335
0.053912
0.017376
0.014996
0.012293
0.016597
0.018839
0.027439
0.038950
0.050051
0.060206
0.068394
0.053503
0.060017
0.066600
0.032355
0.026451
0.034876
0.047601
0.056705
0.056609
0.044693
0.035797
0.043432
0.081868
0.073963
0.062625
0.050874
0.037622
0.020475
0.007820
0.019378
0.034575
0.045663
0.052871
0.056885
0.056678
0.025282
0.004535
0.023413
0.015759
0.015696
0.031081
0.051742
0.014679
0.016408
0.013817
0.014884
0.018987
0.034862
0.044161
0.052559
0.059217
0.063829
0.038696
0.069034
0.022335
0.006997
0.020414
0.080276
0.049296
0.062853
0.007103
0.012953
0.026295
0.023862
0.005933
0.016332
0.019349
0.027569
0.020695
0.005865
0.034756
0.015108
0.017454
0.036024
0.011308
0.013405
0.015101
0.015845
0.015236
0.013478
0.009752
0.005844
0.006560
0.010759
0.016851
0.021273
0.025022
0.013694
0.014833
0.016284
0.015311
0.014193
0.011769
0.007846
0.005643
0.009738
0.015759
0.022990
0.029377
0.034930
0.021300
0.016910
0.011830
0.007721
0.004453
0.003195
0.003950
0.005791
0.008903
0.011976
0.016751
0.020060
0.023341
0.021079
0.016094
0.011986
0.009332
0.007676
0.007493
0.006783
0.005484
0.004221
0.004410
0.006356
0.008317
0.009541
0.031547
0.045366
0.050299
0.038404
0.045982
0.035711
0.038192
0.023987
0.034733
0.022427
0.030057
0.012982
0.016785
0.030708
0.036213
0.026435
0.041700
0.028223
0.019368
0.012490
0.006046
0.004276
0.007265
0.009085
0.010387
0.015800
0.009353
0.012716
0.010442
0.009785
0.010038
0.011208
0.013581
0.018644
0.030309
0.003015
0.006029
0.010103
0.006939
0.016495
0.010372
0.022197
0.027345
0.013605
0.012858
0.013057
0.010521
0.007038
0.034158
0.007353
0.024164
0.018910
0.021890
0.027371
0.029827
0.020635
0.014396
0.007169
0.006373
0.004709
0.009460
0.002625
0.012168
0.004498
0.001353
0.014573
0.004987
0.010017
0.015245
0.021626
0.020269
0.029033
0.014288
0.011098
0.007096
0.005269
0.016206
0.008820
0.006251
0.007836
0.021880
0.026967
0.009489
0.010631
0.012614
0.033678
0.019247
0.031967
0.032478
0.020114
0.015011
0.028434
0.004316
0.025436
0.034190
0.043786
0.022936
0.016661
0.021530
0.020022
0.014728
0.023828
0.028267
0.022518
0.024517
0.024416
0.020486
0.038871
0.039878
0.010555
0.028966
0.009421
0.019989
0.006775
0.003879
0.013063
0.041632
0.036117
0.033380
0.038606
0.038045
0.026289
0.006698
0.011994
0.012895
0.030968
0.026216
0.025451
0.041700
0.030723
0.038368
0.027804
0.012732
0.049711
0.015269
0.023840
0.038028
0.049641
0.027446
0.017674
0.025702
0.044454
0.038462
0.030571
0.036567
0.018949
0.021169
0.054700
0.041135
0.020943
0.022694
0.027615
0.024863
0.013962
0.030001
0.010379
0.031396
0.020667
0.023037
0.026088
0.024889
0.015315
0.036055
0.010675
0.022483
0.020851
0.038736
0.012247
0.024199
0.031442
0.046590
0.005920
0.018737
0.019500
0.037149
0.036495
0.037683
0.025236
0.008755
0.019848
0.006176
0.030045
0.053003
0.023010
0.029041
0.022714
0.021704
0.013403
0.032892
0.012479
0.021913
0.027926
0.025933
0.034908
0.035064
0.001931
0.054584
0.046847
0.015321
0.057127
0.016898
0.035051
0.015159
0.009026
0.050609
0.025370
0.023747
0.041451
0.064172
0.021204
0.032395
0.031224
0.023361
0.017070
0.028956
0.017650
0.027470
0.034051
0.043417
0.023205
0.016792
0.026200
0.022716
0.025953
0.021950
0.028565
0.024442
0.025608
0.021651
0.020900
0.038146
0.038655
0.006422
0.028770
0.021437
0.019073
0.011113
0.011660
0.009738
0.044455
0.036281
0.033361
0.038011
0.039991
0.026519
0.016832
0.012327
0.016766
0.033179
0.031248
0.031303
0.035945
0.031754
0.037822
0.029286
0.011872
0.049233
0.018304
0.027433
0.037092
0.052609
0.026668
0.027579
0.031484
0.043344
0.032339
0.030874
0.033860
0.022141
0.017035
0.053207
0.040660
0.018996
0.023421
0.027946
0.023345
0.015777
0.030489
0.008119
0.030132
0.023957
0.021236
0.027360
0.030272
0.015782
0.036770
0.019444
0.026913
0.030279
0.039361
0.009098
0.025167
0.031054
0.036541
0.005650
0.023115
0.021439
0.038129
0.035952
0.039303
0.025577
0.003175
0.021067
0.013738
0.029325
0.044600
0.020832
0.029096
0.025193
0.016456
0.018399
0.033532
0.008177
0.021764
0.035596
0.029970
0.038694
0.034741
0.013198
0.056272
0.046793
0.016420
0.059443
0.020289
0.033991
0.024531
0.021679
0.050369
0.029643
0.028316
0.040307
0.066842
0.021808
0.005942
0.037558
0.021059
0.014219
0.055080
0.026472
0.026309
0.056978
0.018678
0.006822
0.009087
0.016104
0.010825
0.011542
0.010428
0.013860
0.012044
0.005924
0.004267
0.007392
0.009280
0.005159
0.017872
0.014356
0.020697
0.009708
0.018842
0.019386
0.029756
0.047669
0.055664
0.039740
0.024911
0.059825
0.062550
0.020871
0.072328
0.063594
0.053657
0.041424
0.027487
0.012055
0.007726
0.021341
0.034446
0.042250
0.047671
0.050001
0.049766
0.077814
0.079359
0.054078
0.051021
0.058615
0.065185
0.043940
0.008857
0.036238
0.052390
0.052336
0.015581
0.058803
0.038433
0.027173
0.026513
0.037076
0.026175
0.027679
0.023740
0.024506
0.055816
0.056929
0.008021
0.013885
0.029390
0.014383
0.032880
0.032586
0.029158
0.036228
0.034579
0.022568
0.021151
0.026092
0.029789
0.019990
0.010896
0.006958
0.039888
0.039607
0.035745
0.035373
0.024586
0.012533
0.036354
0.022871
0.023065
0.031395
0.024734
0.044354
0.017538
0.025779
0.028015
0.007028
0.004778
0.008422
0.005242
0.020360
0.013799
0.008954
0.009761
0.005902
0.011750
0.049386
0.032540
0.044061
0.028382
0.039451
0.034403
0.039127
0.022157
0.015111
0.008673
0.040196
0.016140
0.007649
0.015353
0.014672
0.022917
0.027748
0.031615
0.032261
0.031000
0.029852
0.042653
0.048442
0.043986
0.049767
0.038243
0.039530
0.043908
0.008637
0.016378
0.018773
0.020158
0.027390
0.027354
0.024558
0.035277
0.017855
0.026267
0.042627
0.017561
0.025334
0.005554
0.004480
0.031089
0.049390
0.045703
0.049283
0.035153
0.045746
0.029073
0.037945
0.031600
0.019768
0.019027
0.021282
0.040099
0.023996
0.023145
0.015509
0.044678
0.040214
0.035179
0.036219
0.022167
0.028022
0.032622
0.043303
0.052265
0.050232
0.030172
0.012297
0.007446
0.007057
0.024578
0.033211
0.032529
0.020144
0.021910
0.031266
0.042339
0.053369
0.051560
0.022873
0.023756
0.024581
0.013947
0.009207
0.023060
0.022891
0.023848
0.024606
0.034772
0.013972
0.029680
0.033566
0.013033
0.028704
0.020936
0.007884
0.020178
0.009130
0.027568
0.036914
0.013157
0.020802
0.015910
0.002289
0.049468
0.026910
