# vtk DataFile Version 2.0
Unstructured Grid Example
ASCII
DATASET UNSTRUCTURED_GRID
POINTS 749 float
0.000465 -0.009997 0.018978 
0.499836 -0.013137 0.034105 
0.201845 0.709242 -0.009862 
0.700983 0.704818 -0.003544 
0.100874 0.712128 -0.010283 
0.098323 1.012890 0.039873 
1.603509 0.979817 -0.023978 
1.599626 0.679758 0.030875 
0.920978 0.502898 0.001710 
1.001547 0.699990 0.005165 
0.645553 0.500510 -0.012467 
0.659735 0.551161 -0.011201 
0.905181 0.552647 0.001093 
1.051528 0.699318 0.006887 
-0.005660 0.012768 0.198921 
0.495471 0.010057 0.214075 
0.199998 0.688711 0.169942 
0.700842 0.696031 0.176220 
0.100698 0.685008 0.169807 
0.101493 0.983972 0.219830 
1.601988 1.011709 0.156000 
1.595689 0.711696 0.210888 
0.911697 0.502565 0.181628 
0.998664 0.706774 0.185521 
0.642104 0.497733 0.167212 
0.656032 0.547382 0.168760 
0.896289 0.552398 0.181027 
1.048191 0.707520 0.187290 
1.599492 0.853789 0.138464 
1.600945 0.837690 0.048434 
1.600935 0.890729 0.084976 
1.599437 0.800732 0.101866 
0.300901 0.842897 0.147067 
0.299843 0.854978 0.056888 
0.300308 0.893913 0.109028 
0.300553 0.804108 0.094754 
0.125420 -0.010678 0.023117 
0.250326 -0.011299 0.027198 
0.375007 -0.012396 0.031001 
0.026097 0.077439 0.008488 
0.051659 0.165019 -0.002171 
0.077442 0.252994 -0.012672 
0.103521 0.342124 -0.021545 
0.129599 0.432454 -0.027369 
0.154508 0.524307 -0.027214 
0.179318 0.616003 -0.021488 
0.150800 0.712018 -0.010018 
0.099617 0.862717 0.014511 
0.205398 1.012823 0.037503 
0.312207 1.011527 0.033826 
0.418585 1.009829 0.028833 
0.525116 1.008413 0.023209 
0.631637 1.006886 0.017419 
0.738461 1.004863 0.009594 
0.846005 1.002564 0.001637 
0.954112 0.999790 -0.006096 
1.062671 0.996484 -0.013190 
1.171759 0.992529 -0.018163 
1.280175 0.988911 -0.021895 
1.388613 0.985194 -0.024080 
1.496313 0.981994 -0.024515 
1.601648 0.829559 0.003469 
0.850937 0.702917 0.000549 
0.620734 0.412028 -0.011012 
0.596267 0.325288 -0.005975 
0.572351 0.239540 0.002391 
0.547985 0.154320 0.012379 
0.523908 0.070417 0.023347 
0.784154 0.501395 -0.006685 
0.986503 0.601864 0.005965 
0.953820 0.626920 0.004329 
0.783450 0.551157 -0.006506 
0.680367 0.629112 -0.008173 
1.142246 0.694504 0.012404 
1.233697 0.690965 0.017024 
1.325100 0.687573 0.021428 
1.416474 0.684273 0.025307 
1.508003 0.681694 0.028470 
0.119458 0.011815 0.203040 
0.244666 0.010900 0.207111 
0.370177 0.010391 0.210906 
0.019966 0.100039 0.188592 
0.045577 0.187133 0.177854 
0.071021 0.273597 0.167393 
0.096117 0.358818 0.158502 
0.120798 0.442996 0.152802 
0.146359 0.525023 0.152221 
0.172357 0.607379 0.158645 
0.150749 0.685494 0.169857 
0.101091 0.834229 0.194564 
0.208798 0.984735 0.217495 
0.316105 0.986300 0.213896 
0.423736 0.988756 0.208790 
0.530956 0.990881 0.203347 
0.638314 0.993923 0.197407 
0.745536 0.997937 0.189552 
0.852652 1.002416 0.181452 
0.959923 1.006619 0.173641 
1.067122 1.010094 0.166477 
1.173759 1.012824 0.161538 
1.280993 1.013829 0.157919 
1.387918 1.013875 0.155603 
1.494893 1.013274 0.155373 
1.598766 0.861957 0.183473 
0.850805 0.701973 0.180704 
0.618221 0.418597 0.168605 
0.593958 0.337963 0.173855 
0.569094 0.257064 0.182234 
0.544478 0.175599 0.192122 
0.519948 0.092985 0.203403 
0.776436 0.500047 0.173176 
0.979107 0.604442 0.185890 
0.946508 0.629041 0.184270 
0.775042 0.550286 0.173541 
0.678708 0.620760 0.171615 
1.139246 0.711428 0.192698 
1.230097 0.713011 0.197260 
1.321066 0.713835 0.201673 
1.412433 0.713801 0.205505 
1.504038 0.713109 0.208418 
-0.002585 0.001463 0.108919 
0.497666 -0.001509 0.124052 
0.200854 0.698987 0.079026 
0.700938 0.700472 0.086700 
0.100714 0.698629 0.080016 
0.099944 0.998401 0.129697 
1.602788 0.995740 0.066140 
1.597659 0.695745 0.120725 
0.916377 0.502793 0.091630 
1.000030 0.703293 0.095500 
0.643740 0.499191 0.077042 
0.657970 0.549514 0.078230 
0.900765 0.552628 0.091062 
1.049886 0.703110 0.097460 
1.599125 0.819528 0.131260 
1.600192 0.808339 0.067628 
1.601232 0.871979 0.055623 
1.600270 0.883202 0.119282 
0.299729 0.885035 0.075076 
0.300204 0.821170 0.065030 
0.300809 0.813146 0.128793 
0.300748 0.876409 0.138791 
1.506678 0.855230 0.136937 
1.413835 0.856605 0.135434 
1.321042 0.857407 0.134080 
1.228432 0.857689 0.133467 
1.135668 0.857322 0.133201 
1.043257 0.856499 0.133552 
0.950777 0.854733 0.134461 
0.857963 0.852551 0.136088 
0.765443 0.850088 0.138032 
0.672587 0.848149 0.139856 
0.579746 0.846241 0.142351 
0.486828 0.844831 0.144104 
0.393997 0.843973 0.145758 
1.508080 0.892420 0.083803 
1.415187 0.894094 0.082771 
1.322232 0.895820 0.082023 
1.229161 0.897108 0.082745 
1.136105 0.898042 0.083681 
1.043097 0.898488 0.085342 
0.950080 0.898286 0.087933 
0.857138 0.897569 0.091095 
0.764219 0.896613 0.094541 
0.671339 0.895601 0.097776 
0.578575 0.894882 0.101377 
0.485837 0.894438 0.104527 
0.392970 0.894006 0.107259 
1.508024 0.839676 0.046941 
1.415153 0.841689 0.045466 
1.322238 0.844270 0.044115 
1.229018 0.846494 0.043547 
1.135979 0.848862 0.043131 
1.042665 0.850583 0.043543 
0.949413 0.851815 0.044572 
0.856441 0.852502 0.046210 
0.763344 0.853053 0.048034 
0.670470 0.853057 0.049986 
0.577955 0.853560 0.052462 
0.485207 0.853815 0.054151 
0.392464 0.854358 0.055691 
1.506610 0.802453 0.100103 
1.413821 0.804057 0.097895 
1.321044 0.805748 0.095872 
1.228277 0.807293 0.093998 
1.135633 0.807882 0.092474 
1.042832 0.808416 0.091443 
0.950034 0.808258 0.090811 
0.857298 0.807535 0.090956 
0.764388 0.806317 0.091618 
0.671838 0.805307 0.092122 
0.579015 0.804789 0.093107 
0.486308 0.804353 0.094022 
0.393451 0.804128 0.094603 
1.601524 0.954671 0.115042 
1.597647 0.751053 0.152459 
1.599307 0.736803 0.071813 
1.602306 0.940047 0.035300 
1.600438 0.767833 0.035527 
1.597739 0.792660 0.175479 
1.602140 0.897550 0.010757 
1.600490 0.923671 0.151366 
1.600679 0.804560 0.041785 
1.598678 0.825019 0.156729 
1.601563 0.865620 0.029327 
1.599923 0.886966 0.145153 
1.600876 0.913725 0.113013 
1.598533 0.788677 0.136337 
1.599710 0.777630 0.073757 
1.601662 0.901265 0.048138 
1.598683 0.754953 0.110154 
1.601750 0.935456 0.076113 
0.345227 0.828569 0.126338 
1.555052 0.834145 0.123749 
0.718475 0.827688 0.115422 
0.811222 0.828808 0.114084 
0.903929 0.831022 0.113127 
0.625763 0.826103 0.116705 
1.181908 0.832584 0.113219 
0.440128 0.824489 0.119668 
0.996537 0.832124 0.112668 
0.532904 0.825199 0.118308 
1.089172 0.832666 0.112598 
1.274654 0.831912 0.114467 
1.367351 0.831045 0.115944 
1.460179 0.829597 0.117608 
0.333904 0.814973 0.108468 
1.566088 0.815591 0.111206 
0.345032 0.862703 0.132031 
1.555654 0.868644 0.117225 
0.811317 0.874191 0.114883 
0.718664 0.872435 0.117434 
0.904294 0.875857 0.112447 
0.625607 0.871128 0.120524 
0.997036 0.877118 0.110342 
0.532842 0.870032 0.123182 
0.439998 0.869457 0.125667 
1.182473 0.877575 0.108088 
1.089630 0.877715 0.108869 
1.275310 0.877060 0.107932 
1.368104 0.875978 0.108632 
1.461002 0.874590 0.109728 
0.333764 0.880287 0.118826 
1.567204 0.881330 0.098876 
0.300415 0.848907 0.102055 
0.300536 0.830239 0.106517 
0.300236 0.843897 0.082907 
0.300600 0.853466 0.121167 
0.300255 0.867880 0.098030 
1.555907 0.824458 0.068202 
0.344747 0.823398 0.079774 
0.717577 0.829709 0.070262 
0.810262 0.830159 0.069135 
0.903359 0.829793 0.067861 
0.624807 0.829171 0.071869 
1.089430 0.828721 0.067919 
0.532198 0.828990 0.073334 
0.996413 0.829705 0.067805 
1.182300 0.827592 0.068144 
0.439402 0.829027 0.074548 
1.275302 0.826045 0.069470 
1.368132 0.823932 0.070931 
1.460958 0.821948 0.072603 
1.566495 0.811348 0.086884 
0.333362 0.841009 0.066654 
0.344311 0.869777 0.076394 
1.556557 0.871199 0.070274 
0.717203 0.874785 0.072452 
0.810223 0.874994 0.069924 
0.903074 0.875059 0.067452 
0.624567 0.874188 0.075329 
1.182485 0.872622 0.063150 
0.996071 0.874724 0.065380 
1.089378 0.873888 0.063880 
0.531748 0.874232 0.078182 
0.439102 0.874218 0.080734 
1.275544 0.871010 0.063080 
1.368606 0.869022 0.063624 
1.461537 0.866955 0.064753 
0.333430 0.883349 0.094536 
1.567624 0.852665 0.057688 
0.422547 0.598335 -0.015238 
0.348778 0.354664 -0.014095 
0.381644 0.802561 0.003434 
0.530172 0.722842 -0.004309 
0.542226 0.557553 -0.013755 
1.035467 0.847129 -0.001305 
0.324413 0.688540 -0.009918 
0.441782 0.469893 -0.016482 
0.298300 0.493782 -0.021337 
0.249223 0.177929 0.002376 
0.618208 0.842248 0.005101 
0.266517 0.785355 0.001018 
0.432760 0.706005 -0.006982 
1.175339 0.840207 -0.001647 
0.404315 0.197503 0.004216 
1.368086 0.832808 0.000297 
0.509040 0.846868 0.007746 
0.498206 0.640380 -0.011144 
0.479709 0.334065 -0.008967 
0.594344 0.638968 -0.009193 
0.318035 0.591285 -0.018655 
0.237113 0.352887 -0.017778 
0.767392 0.836885 0.002433 
0.549466 0.455803 -0.013794 
1.100629 0.792661 0.002670 
0.725499 0.528698 -0.009006 
0.900212 0.907405 -0.000597 
0.936908 0.780636 0.001614 
0.841121 0.529700 -0.003060 
0.317510 0.898264 0.017259 
0.266244 0.644880 -0.016508 
0.467052 0.528573 -0.016246 
0.377338 0.510679 -0.018798 
0.397337 0.896507 0.015768 
0.598423 0.541134 -0.012755 
1.022099 0.768125 0.003064 
0.628038 0.753037 -0.001188 
0.994037 0.650236 0.005597 
0.175714 0.095975 0.010882 
0.189534 0.809835 0.004968 
1.277754 0.780691 0.006901 
1.467543 0.775158 0.011315 
0.181006 0.272774 -0.011588 
0.345203 0.103378 0.014903 
0.387193 0.653583 -0.012455 
0.942526 0.574193 0.003344 
0.215782 0.446662 -0.024067 
0.478093 0.765827 -0.000632 
0.266736 0.717299 -0.007745 
0.366129 0.435971 -0.018201 
0.198404 0.908496 0.020984 
0.292356 0.281166 -0.008583 
1.100426 0.907359 -0.007328 
1.271521 0.881482 -0.007024 
0.264833 0.566377 -0.021510 
1.460768 0.887072 -0.008255 
0.569043 0.916190 0.012755 
0.458741 0.135564 0.013498 
0.375993 0.728721 -0.005155 
0.484965 0.237583 0.000999 
0.440339 0.054169 0.023887 
0.293762 0.408718 -0.019430 
0.688301 0.909650 0.007905 
0.621959 0.590027 -0.010718 
0.593796 0.485026 -0.013349 
0.542350 0.376519 -0.010544 
0.555433 0.787260 0.001334 
0.483897 0.580796 -0.014432 
0.696176 0.796672 0.001487 
[...]
POINT_DATA 749
SCALARS u float 1
LOOKUP_TABLE default
0.043351
0.073847
0.027562
0.012247
0.032177
0.084739
0.063723
0.074601
0.013862
0.010894
0.025793
0.023348
0.011960
0.014321
0.047519
0.072369
0.030551
0.011204
0.036657
0.086803
0.054107
0.067302
0.009068
0.017862
0.026286
0.023427
0.009167
0.021476
0.010425
0.025894
0.013458
0.025506
0.028350
0.026044
0.038515
0.009837
0.051458
0.059513
0.067462
0.026690
0.020909
0.032386
0.046893
0.056996
0.055754
0.044848
0.031655
0.038994
0.080163
0.072329
0.061818
0.050368
0.038734
0.023477
0.010146
0.013762
0.027774
0.039689
0.049696
0.057415
0.061855
0.042026
0.006288
0.024383
0.020356
0.021761
0.035335
0.053912
0.017376
0.014996
0.012293
0.016597
0.018839
0.027439
0.038950
0.050051
0.060206
0.068394
0.053503
0.060017
0.066600
0.032355
0.026451
0.034876
0.047601
0.056705
0.056609
0.044693
0.035797
0.043432
0.081868
0.073963
0.062625
0.050874
0.037622
0.020475
0.007820
0.019378
0.034575
0.045663
0.052871
0.056885
0.056678
0.025282
0.004535
0.023413
0.015759
0.015696
0.031081
0.051742
0.014679
0.016408
0.013817
0.014884
0.018987
0.034862
0.044161
0.052559
0.059217
0.063829
0.038696
0.069034
0.022335
0.006997
0.020414
0.080276
0.049296
0.062853
0.007103
0.012953
0.026295
0.023862
0.005933
0.016332
0.019349
0.027569
0.020695
0.005865
0.034756
0.015108
0.017454
0.036024
0.011308
0.013405
0.015101
0.015845
0.015236
0.013478
0.009752
0.005844
0.006560
0.010759
0.016851
0.021273
0.025022
0.013694
0.014833
0.016284
0.015311
0.014193
0.011769
0.007846
0.005643
0.009738
0.015759
0.022990
0.029377
0.034930
0.021300
0.016910
0.011830
0.007721
0.004453
0.003195
0.003950
0.005791
0.008903
0.011976
0.016751
0.020060
0.023341
0.021079
0.016094
0.011986
0.009332
0.007676
0.007493
0.006783
0.005484
0.004221
0.004410
0.006356
0.008317
0.009541
0.031547
0.045366
0.050299
0.038404
0.045982
0.035711
0.038192
0.023987
0.034733
0.022427
0.030057
0.012982
0.016785
0.030708
0.036213
0.026435
0.041700
0.028223
0.019368
0.012490
0.006046
0.004276
0.007265
0.009085
0.010387
0.015800
0.009353
0.012716
0.010442
0.009785
0.010038
0.011208
0.013581
0.018644
0.030309
0.003015
0.006029
0.010103
0.006939
0.016495
0.010372
0.022197
0.027345
0.013605
0.012858
0.013057
0.010521
0.007038
0.034158
0.007353
0.024164
0.018910
0.021890
0.027371
0.029827
0.020635
0.014396
0.007169
0.006373
0.004709
0.009460
0.002625
0.012168
0.004498
0.001353
0.014573
0.004987
0.010017
0.015245
0.021626
0.020269
0.029033
0.014288
0.011098
0.007096
0.005269
0.016206
0.008820
0.006251
0.007836
0.021880
0.026967
0.009489
0.010631
0.012614
0.033678
0.019247
0.031967
0.032478
0.020114
0.015011
0.028434
0.004316
0.025436
0.034190
0.043786
0.022936
0.016661
0.021530
0.020022
0.014728
0.023828
0.028267
0.022518
0.024517
0.024416
0.020486
0.038871
0.039878
0.010555
0.028966
0.009421
0.019989
0.006775
0.003879
0.013063
0.041632
0.036117
0.033380
0.038606
0.038045
0.026289
0.006698
0.011994
0.012895
0.030968
0.026216
0.025451
0.041700
0.030723
0.038368
0.027804
0.012732
0.049711
0.015269
0.023840
0.038028
0.049641
0.027446
0.017674
0.025702
0.044454
0.038462
0.030571
0.036567
0.018949
0.021169
0.054700
0.041135
0.020943
0.022694
0.027615
0.024863
0.013962
0.030001
0.010379
0.031396
0.020667
0.023037
0.026088
0.024889
0.015315
0.036055
0.010675
0.022483
0.020851
0.038736
0.012247
0.024199
0.031442
0.046590
0.005920
0.018737
0.019500
0.037149
0.036495
0.037683
0.025236
0.008755
0.019848
0.006176
0.030045
0.053003
0.023010
0.029041
0.022714
0.021704
0.013403
0.032892
0.012479
0.021913
0.027926
0.025933
0.034908
0.035064
0.001931
0.054584
0.046847
0.015321
0.057127
0.016898
0.035051
0.015159
0.009026
0.050609
0.025370
0.023747
0.041451
0.064172
0.021204
0.032395
0.031224
0.023361
0.017070
0.028956
0.017650
0.027470
0.034051
0.043417
0.023205
0.016792
0.026200
0.022716
0.025953
0.021950
0.028565
0.024442
0.025608
0.021651
0.020900
0.038146
0.038655
0.006422
0.028770
0.021437
0.019073
0.011113
0.011660
0.009738
0.044455
0.036281
0.033361
0.038011
0.039991
0.026519
0.016832
0.012327
0.016766
0.033179
0.031248
0.031303
0.035945
0.031754
0.037822
0.029286
0.011872
0.049233
0.018304
0.027433
0.037092
0.052609
0.026668
0.027579
0.031484
0.043344
0.032339
0.030874
0.033860
0.022141
0.017035
0.053207
0.040660
0.018996
0.023421
0.027946
0.023345
0.015777
0.030489
0.008119
0.030132
0.023957
0.021236
0.027360
0.030272
0.015782
0.036770
0.019444
0.026913
0.030279
0.039361
0.009098
0.025167
0.031054
0.036541
0.005650
0.023115
0.021439
0.038129
0.035952
0.039303
0.025577
0.003175
0.021067
0.013738
0.029325
0.044600
0.020832
0.029096
0.025193
0.016456
0.018399
0.033532
0.008177
0.021764
0.035596
0.029970
0.038694
0.034741
0.013198
0.056272
0.046793
0.016420
0.059443
0.020289
0.033991
0.024531
0.021679
0.050369
0.029643
0.028316
0.040307
0.066842
0.021808
0.005942
0.037558
0.021059
0.014219
0.055080
0.026472
0.026309
0.056978
0.018678
0.006822
0.009087
0.016104
0.010825
0.011542
0.010428
0.013860
0.012044
0.005924
0.004267
0.007392
0.009280
0.005159
0.017872
0.014356
0.020697
0.009708
0.018842
0.019386
0.029756
0.047669
0.055664
0.039740
0.024911
0.059825
0.062550
0.020871
0.072328
0.063594
0.053657
0.041424
0.027487
0.012055
0.007726
0.021341
0.034446
0.042250
0.047671
0.050001
0.049766
0.077814
0.079359
0.054078
0.051021
0.058615
0.065185
0.043940
0.008857
0.036238
0.052390
0.052336
0.015581
0.058803
0.038433
0.027173
0.026513
0.037076
0.026175
0.027679
0.023740
0.024506
0.055816
0.056929
0.008021
0.013885
0.029390
0.014383
0.032880
0.032586
0.029158
0.036228
0.034579
0.022568
0.021151
0.026092
0.029789
0.019990
0.010896
0.006958
0.039888
0.039607
0.035745
0.035373
0.024586
0.012533
0.036354
0.022871
0.023065
0.031395
0.024734
0.044354
0.017538
0.025779
0.028015
0.007028
0.004778
0.008422
0.005242
0.020360
0.013799
0.008954
0.009761
0.005902
0.011750
0.049386
0.032540
0.044061
0.028382
0.039451
0.034403
0.039127
0.022157
0.015111
0.008673
0.040196
0.016140
0.007649
0.015353
0.014672
0.022917
0.027748
0.031615
0.032261
0.031000
0.029852
0.042653
0.048442
0.043986
0.049767
0.038243
0.039530
0.043908
0.008637
0.016378
0.018773
0.020158
0.027390
0.027354
0.024558
0.035277
0.017855
0.026267
0.042627
0.017561
0.025334
0.005554
0.004480
0.031089
0.049390
0.045703
0.049283
0.035153
0.045746
0.029073
0.037945
0.031600
0.019768
0.019027
0.021282
0.040099
0.023996
0.023145
0.015509
0.044678
0.040214
0.035179
0.036219
0.022167
0.028022
0.032622
0.043303
0.052265
0.050232
0.030172
0.012297
0.007446
0.007057
0.024578
0.033211
0.032529
0.020144
0.021910
0.031266
0.042339
0.053369
0.051560
0.022873
0.023756
0.024581
0.013947
0.009207
0.023060
0.022891
0.023848
0.024606
0.034772
0.013972
0.029680
0.033566
0.013033
0.028704
0.020936
0.007884
0.020178
0.009130
0.027568
0.036914
0.013157
0.020802
0.015910
0.002289
0.049468
0.026910
