# vtk DataFile Version 2.0
Unstructured Grid Example
ASCII
DATASET UNSTRUCTURED_GRID
POINTS 749 float
0.000457 -0.009815 0.018632 
0.499839 -0.012898 0.033484 
0.201811 0.709074 -0.009682 
0.700965 0.704731 -0.003479 
0.100858 0.711907 -0.010096 
0.098353 1.012656 0.039147 
1.603445 0.980184 -0.023541 
1.599633 0.680127 0.030314 
0.920870 0.502845 0.001679 
1.001519 0.699991 0.005071 
0.645504 0.500500 -0.012240 
0.659688 0.551140 -0.010997 
0.905086 0.552598 0.001074 
1.051500 0.699330 0.006762 
-0.005557 0.012536 0.198577 
0.495553 0.009874 0.213455 
0.199998 0.688916 0.170125 
0.700826 0.696103 0.176289 
0.100686 0.685281 0.169993 
0.101466 0.984264 0.219105 
1.601952 1.011496 0.156436 
1.595767 0.711483 0.210326 
0.911757 0.502519 0.181598 
0.998688 0.706650 0.185421 
0.642118 0.497774 0.167445 
0.656052 0.547429 0.168965 
0.896356 0.552355 0.181009 
1.048224 0.707384 0.187157 
1.599501 0.853720 0.138401 
1.600928 0.837914 0.048372 
1.600918 0.890807 0.085067 
1.599447 0.800809 0.101650 
0.300885 0.843027 0.146847 
0.299846 0.854888 0.056672 
0.300302 0.893933 0.108682 
0.300543 0.804125 0.094668 
0.125412 -0.010484 0.022696 
0.250320 -0.011094 0.026703 
0.375007 -0.012170 0.030437 
0.026077 0.077622 0.008334 
0.051629 0.165201 -0.002131 
0.077397 0.253167 -0.012442 
0.103457 0.342268 -0.021153 
0.129515 0.432546 -0.026871 
0.154426 0.524319 -0.026719 
0.179239 0.615939 -0.021097 
0.150785 0.711800 -0.009836 
0.099624 0.862485 0.014247 
0.205430 1.012590 0.036821 
0.312244 1.011317 0.033211 
0.418637 1.009651 0.028308 
0.525179 1.008260 0.022787 
0.631711 1.006761 0.017102 
0.738541 1.004774 0.009419 
0.846078 1.002517 0.001608 
0.954167 0.999794 -0.005985 
1.062700 0.996548 -0.012950 
1.171753 0.992665 -0.017833 
1.280146 0.989112 -0.021496 
1.388561 0.985464 -0.023641 
1.496250 0.982322 -0.024069 
1.601618 0.829931 0.003406 
0.850919 0.702863 0.000539 
0.620704 0.412113 -0.010811 
0.596249 0.325434 -0.005867 
0.572334 0.239730 0.002348 
0.547978 0.154544 0.012154 
0.523907 0.070652 0.022922 
0.784059 0.501369 -0.006564 
0.986431 0.601830 0.005856 
0.953751 0.626885 0.004250 
0.783361 0.551136 -0.006388 
0.680335 0.629037 -0.008024 
1.142236 0.694604 0.012179 
1.233691 0.691129 0.016714 
1.325099 0.687799 0.021038 
1.416477 0.684559 0.024847 
1.508009 0.682028 0.027952 
0.119559 0.011600 0.202621 
0.244763 0.010702 0.206618 
0.370265 0.010202 0.210344 
0.020058 0.099811 0.188436 
0.045657 0.186912 0.177893 
0.071093 0.273396 0.167623 
0.096188 0.358657 0.158893 
0.120874 0.442896 0.153297 
0.146425 0.525023 0.152727 
0.172405 0.607472 0.159033 
0.150735 0.685758 0.170042 
0.101071 0.834516 0.194299 
0.208768 0.985013 0.216813 
0.316072 0.986549 0.213279 
0.423694 0.988961 0.208266 
0.530913 0.991047 0.202922 
0.638266 0.994034 0.197090 
0.745488 0.997974 0.189379 
0.852604 1.002372 0.181425 
0.959872 1.006498 0.173757 
1.067070 1.009910 0.166723 
1.173716 1.012591 0.161874 
1.280949 1.013577 0.158321 
1.387878 1.013622 0.156047 
1.494856 1.013033 0.155821 
1.598788 0.861740 0.183410 
0.850790 0.701937 0.180691 
0.618236 0.418562 0.168812 
0.593981 0.337879 0.173967 
0.569136 0.256936 0.182193 
0.544535 0.175437 0.191902 
0.520019 0.092809 0.202977 
0.776482 0.500046 0.173300 
0.979168 0.604362 0.185783 
0.946572 0.628968 0.184192 
0.775106 0.550281 0.173658 
0.678705 0.620838 0.171767 
1.139290 0.711220 0.192467 
1.230156 0.712774 0.196946 
1.321138 0.713583 0.201279 
1.412510 0.713549 0.205041 
1.504116 0.712870 0.207901 
-0.002538 0.001436 0.108575 
0.497708 -0.001482 0.123433 
0.200839 0.699006 0.079226 
0.700921 0.700463 0.086760 
0.100701 0.698654 0.080198 
0.099945 0.998430 0.128975 
1.602737 0.995818 0.066574 
1.597702 0.695822 0.120166 
0.916352 0.502742 0.091601 
1.000029 0.703233 0.095400 
0.643724 0.499205 0.077277 
0.657955 0.549523 0.078444 
0.900751 0.552581 0.091043 
1.049888 0.703053 0.097324 
1.599141 0.819504 0.131088 
1.600189 0.808518 0.067456 
1.601210 0.872158 0.055669 
1.600266 0.883177 0.119328 
0.299734 0.884976 0.074768 
0.300200 0.821116 0.064906 
0.300795 0.813237 0.128666 
0.300735 0.876507 0.138482 
1.506687 0.855135 0.136902 
1.413844 0.856484 0.135426 
1.321049 0.857272 0.134097 
1.228434 0.857549 0.133494 
1.135669 0.857189 0.133233 
1.043250 0.856381 0.133578 
0.950763 0.854646 0.134470 
0.857948 0.852505 0.136068 
0.765422 0.850086 0.137977 
0.672566 0.848182 0.139768 
0.579725 0.846309 0.142217 
0.486808 0.844925 0.143939 
0.393976 0.844083 0.145562 
1.508063 0.892467 0.083916 
1.415171 0.894111 0.082902 
1.322218 0.895805 0.082168 
1.229151 0.897069 0.082877 
1.136098 0.897986 0.083796 
1.043093 0.898425 0.085426 
0.950078 0.898227 0.087971 
0.857138 0.897522 0.091075 
0.764220 0.896584 0.094458 
0.671340 0.895590 0.097634 
0.578575 0.894884 0.101170 
0.485834 0.894448 0.104263 
0.392967 0.894024 0.106944 
1.508008 0.839864 0.046906 
1.415137 0.841840 0.045458 
1.322223 0.844374 0.044131 
1.229010 0.846558 0.043573 
1.135974 0.848883 0.043165 
1.042668 0.850572 0.043569 
0.949423 0.851782 0.044580 
0.856454 0.852456 0.046188 
0.763361 0.852998 0.047979 
0.670487 0.853002 0.049896 
0.577966 0.853495 0.052326 
0.485216 0.853746 0.053985 
0.392471 0.854278 0.055496 
1.506620 0.802500 0.099919 
1.413829 0.804074 0.097752 
1.321051 0.805734 0.095765 
1.228282 0.807251 0.093926 
1.135635 0.807829 0.092429 
1.042833 0.808354 0.091416 
0.950033 0.808198 0.090796 
0.857295 0.807489 0.090939 
0.764387 0.806293 0.091588 
0.671831 0.805301 0.092083 
0.579007 0.804793 0.093050 
0.486298 0.804365 0.093948 
0.393440 0.804143 0.094519 
1.601496 0.954620 0.115320 
1.597690 0.751001 0.152056 
1.599320 0.737010 0.071410 
1.602264 0.940251 0.035577 
1.600430 0.768136 0.035245 
1.597780 0.792512 0.175197 
1.602101 0.897855 0.010909 
1.600481 0.923523 0.151523 
1.600666 0.804823 0.041617 
1.598702 0.824910 0.156560 
1.601535 0.865887 0.029366 
1.599925 0.886857 0.145196 
1.600860 0.913703 0.113162 
1.598560 0.788654 0.136062 
1.599716 0.777808 0.073483 
1.601631 0.901451 0.048283 
1.598707 0.755030 0.109788 
1.601718 0.935536 0.076352 
0.345213 0.828645 0.126182 
1.555062 0.834120 0.123640 
0.718464 0.827684 0.115368 
0.811213 0.828784 0.114055 
0.903923 0.830958 0.113115 
0.625749 0.826128 0.116629 
1.181912 0.832492 0.113206 
0.440112 0.824544 0.119537 
0.996535 0.832040 0.112665 
0.532891 0.825241 0.118202 
1.089174 0.832572 0.112597 
1.274660 0.831832 0.114431 
1.367360 0.830980 0.115881 
1.460189 0.829559 0.117515 
0.333893 0.815012 0.108352 
1.566098 0.815619 0.111041 
0.345021 0.862786 0.131772 
1.555653 0.868619 0.117235 
0.811306 0.874161 0.114840 
0.718649 0.872436 0.117344 
0.904281 0.875796 0.112448 
0.625596 0.871153 0.120378 
0.997025 0.877034 0.110382 
0.532830 0.870077 0.122988 
0.439985 0.869513 0.125428 
1.182467 0.877483 0.108168 
1.089623 0.877620 0.108935 
1.275304 0.876977 0.108015 
1.368099 0.875914 0.108703 
1.460997 0.874552 0.109779 
0.333756 0.880334 0.118522 
1.567194 0.881358 0.098935 
0.300408 0.848926 0.101839 
0.300526 0.830274 0.106351 
0.300232 0.843873 0.082712 
0.300589 0.853530 0.120929 
0.300251 0.867882 0.097762 
1.555901 0.824609 0.068094 
0.344741 0.823377 0.079646 
0.717582 0.829669 0.070212 
0.810270 0.830111 0.069105 
0.903363 0.829751 0.067855 
0.624810 0.829141 0.071790 
1.089428 0.828699 0.067911 
0.532197 0.828963 0.073228 
0.996413 0.829665 0.067799 
1.182297 0.827591 0.068133 
0.439400 0.828999 0.074420 
1.275297 0.826071 0.069434 
1.368127 0.823997 0.070868 
1.460954 0.822049 0.072510 
1.566498 0.811453 0.086720 
0.333362 0.840952 0.066481 
0.344313 0.869731 0.076137 
1.556539 0.871319 0.070319 
0.717214 0.874743 0.072362 
0.810232 0.874948 0.069880 
0.903083 0.875013 0.067453 
0.624575 0.874158 0.075186 
1.182479 0.872620 0.063229 
0.996078 0.874684 0.065419 
1.089377 0.873863 0.063946 
0.531755 0.874201 0.077987 
0.439105 0.874187 0.080493 
1.275534 0.871037 0.063160 
1.368592 0.869085 0.063694 
1.461522 0.867056 0.064803 
0.333428 0.883341 0.094233 
1.567606 0.852837 0.057677 
0.422493 0.598280 -0.014961 
0.348730 0.354796 -0.013839 
0.381642 0.802391 0.003371 
0.530151 0.722734 -0.004231 
0.542177 0.557529 -0.013504 
1.035478 0.847157 -0.001281 
0.324380 0.688403 -0.009738 
0.441727 0.469937 -0.016183 
0.298233 0.493794 -0.020949 
0.249194 0.178129 0.002332 
0.618231 0.842132 0.005008 
0.266507 0.785162 0.000999 
0.432729 0.705881 -0.006855 
1.175329 0.840336 -0.001617 
0.404290 0.197701 0.004139 
1.368061 0.833061 0.000291 
0.509057 0.846723 0.007605 
0.498164 0.640304 -0.010941 
0.479672 0.334208 -0.008803 
0.594307 0.638900 -0.009025 
0.317974 0.591225 -0.018315 
0.237055 0.353032 -0.017454 
0.767416 0.836804 0.002389 
0.549418 0.455856 -0.013543 
1.100608 0.792727 0.002622 
0.725427 0.528679 -0.008842 
0.900266 0.907379 -0.000587 
0.936900 0.780619 0.001584 
0.841023 0.529666 -0.003004 
0.317538 0.898061 0.016945 
0.266187 0.644769 -0.016208 
0.466997 0.528572 -0.015950 
0.377277 0.510688 -0.018456 
0.397370 0.896323 0.015481 
0.598378 0.541121 -0.012523 
1.022081 0.768140 0.003008 
0.628030 0.752932 -0.001166 
0.993985 0.650219 0.005495 
0.175694 0.096171 0.010684 
0.189530 0.809616 0.004878 
1.277730 0.780881 0.006775 
1.467521 0.775471 0.011109 
0.180959 0.272947 -0.011378 
0.345185 0.103591 0.014632 
0.387148 0.653487 -0.012229 
0.942439 0.574148 0.003283 
0.215710 0.446721 -0.023629 
0.478086 0.765690 -0.000620 
0.266709 0.717140 -0.007604 
0.366074 0.436039 -0.017870 
0.198425 0.908265 0.020602 
0.292312 0.281352 -0.008427 
1.100447 0.907444 -0.007194 
1.271512 0.881675 -0.006896 
0.264768 0.566324 -0.021119 
1.460735 0.887382 -0.008105 
0.569099 0.916053 0.012523 
0.458733 0.135783 0.013252 
0.375966 0.728581 -0.005061 
0.484944 0.237772 0.000981 
0.440334 0.054401 0.023453 
0.293701 0.408810 -0.019076 
0.688362 0.909544 0.007762 
0.621915 0.589984 -0.010523 
0.593747 0.485048 -0.013106 
0.542317 0.376629 -0.010352 
0.555436 0.787136 0.001309 
0.483847 0.580757 -0.014169 
0.696182 0.796583 0.001460 
[...]
POINT_DATA 749
SCALARS u float 1
LOOKUP_TABLE default
0.043351
0.073847
0.027562
0.012247
0.032177
0.084739
0.063723
0.074601
0.013862
0.010894
0.025793
0.023348
0.011960
0.014321
0.047519
0.072369
0.030551
0.011204
0.036657
0.086803
0.054107
0.067302
0.009068
0.017862
0.026286
0.023427
0.009167
0.021476
0.010425
0.025894
0.013458
0.025506
0.028350
0.026044
0.038515
0.009837
0.051458
0.059513
0.067462
0.026690
0.020909
0.032386
0.046893
0.056996
0.055754
0.044848
0.031655
0.038994
0.080163
0.072329
0.061818
0.050368
0.038734
0.023477
0.010146
0.013762
0.027774
0.039689
0.049696
0.057415
0.061855
0.042026
0.006288
0.024383
0.020356
0.021761
0.035335
0.053912
0.017376
0.014996
0.012293
0.016597
0.018839
0.027439
0.038950
0.050051
0.060206
0.068394
0.053503
0.060017
0.066600
0.032355
0.026451
0.034876
0.047601
0.056705
0.056609
0.044693
0.035797
0.043432
0.081868
0.073963
0.062625
0.050874
0.037622
0.020475
0.007820
0.019378
0.034575
0.045663
0.052871
0.056885
0.056678
0.025282
0.004535
0.023413
0.015759
0.015696
0.031081
0.051742
0.014679
0.016408
0.013817
0.014884
0.018987
0.034862
0.044161
0.052559
0.059217
0.063829
0.038696
0.069034
0.022335
0.006997
0.020414
0.080276
0.049296
0.062853
0.007103
0.012953
0.026295
0.023862
0.005933
0.016332
0.019349
0.027569
0.020695
0.005865
0.034756
0.015108
0.017454
0.036024
0.011308
0.013405
0.015101
0.015845
0.015236
0.013478
0.009752
0.005844
0.006560
0.010759
0.016851
0.021273
0.025022
0.013694
0.014833
0.016284
0.015311
0.014193
0.011769
0.007846
0.005643
0.009738
0.015759
0.022990
0.029377
0.034930
0.021300
0.016910
0.011830
0.007721
0.004453
0.003195
0.003950
0.005791
0.008903
0.011976
0.016751
0.020060
0.023341
0.021079
0.016094
0.011986
0.009332
0.007676
0.007493
0.006783
0.005484
0.004221
0.004410
0.006356
0.008317
0.009541
0.031547
0.045366
0.050299
0.038404
0.045982
0.035711
0.038192
0.023987
0.034733
0.022427
0.030057
0.012982
0.016785
0.030708
0.036213
0.026435
0.041700
0.028223
0.019368
0.012490
0.006046
0.004276
0.007265
0.009085
0.010387
0.015800
0.009353
0.012716
0.010442
0.009785
0.010038
0.011208
0.013581
0.018644
0.030309
0.003015
0.006029
0.010103
0.006939
0.016495
0.010372
0.022197
0.027345
0.013605
0.012858
0.013057
0.010521
0.007038
0.034158
0.007353
0.024164
0.018910
0.021890
0.027371
0.029827
0.020635
0.014396
0.007169
0.006373
0.004709
0.009460
0.002625
0.012168
0.004498
0.001353
0.014573
0.004987
0.010017
0.015245
0.021626
0.020269
0.029033
0.014288
0.011098
0.007096
0.005269
0.016206
0.008820
0.006251
0.007836
0.021880
0.026967
0.009489
0.010631
0.012614
0.033678
0.019247
0.031967
0.032478
0.020114
0.015011
0.028434
0.004316
0.025436
0.034190
0.043786
0.022936
0.016661
0.021530
0.020022
0.014728
0.023828
0.028267
0.022518
0.024517
0.024416
0.020486
0.038871
0.039878
0.010555
0.028966
0.009421
0.019989
0.006775
0.003879
0.013063
0.041632
0.036117
0.033380
0.038606
0.038045
0.026289
0.006698
0.011994
0.012895
0.030968
0.026216
0.025451
0.041700
0.030723
0.038368
0.027804
0.012732
0.049711
0.015269
0.023840
0.038028
0.049641
0.027446
0.017674
0.025702
0.044454
0.038462
0.030571
0.036567
0.018949
0.021169
0.054700
0.041135
0.020943
0.022694
0.027615
0.024863
0.013962
0.030001
0.010379
0.031396
0.020667
0.023037
0.026088
0.024889
0.015315
0.036055
0.010675
0.022483
0.020851
0.038736
0.012247
0.024199
0.031442
0.046590
0.005920
0.018737
0.019500
0.037149
0.036495
0.037683
0.025236
0.008755
0.019848
0.006176
0.030045
0.053003
0.023010
0.029041
0.022714
0.021704
0.013403
0.032892
0.012479
0.021913
0.027926
0.025933
0.034908
0.035064
0.001931
0.054584
0.046847
0.015321
0.057127
0.016898
0.035051
0.015159
0.009026
0.050609
0.025370
0.023747
0.041451
0.064172
0.021204
0.032395
0.031224
0.023361
0.017070
0.028956
0.017650
0.027470
0.034051
0.043417
0.023205
0.016792
0.026200
0.022716
0.025953
0.021950
0.028565
0.024442
0.025608
0.021651
0.020900
0.038146
0.038655
0.006422
0.028770
0.021437
0.019073
0.011113
0.011660
0.009738
0.044455
0.036281
0.033361
0.038011
0.039991
0.026519
0.016832
0.012327
0.016766
0.033179
0.031248
0.031303
0.035945
0.031754
0.037822
0.029286
0.011872
0.049233
0.018304
0.027433
0.037092
0.052609
0.026668
0.027579
0.031484
0.043344
0.032339
0.030874
0.033860
0.022141
0.017035
0.053207
0.040660
0.018996
0.023421
0.027946
0.023345
0.015777
0.030489
0.008119
0.030132
0.023957
0.021236
0.027360
0.030272
0.015782
0.036770
0.019444
0.026913
0.030279
0.039361
0.009098
0.025167
0.031054
0.036541
0.005650
0.023115
0.021439
0.038129
0.035952
0.039303
0.025577
0.003175
0.021067
0.013738
0.029325
0.044600
0.020832
0.029096
0.025193
0.016456
0.018399
0.033532
0.008177
0.021764
0.035596
0.029970
0.038694
0.034741
0.013198
0.056272
0.046793
0.016420
0.059443
0.020289
0.033991
0.024531
0.021679
0.050369
0.029643
0.028316
0.040307
0.066842
0.021808
0.005942
0.037558
0.021059
0.014219
0.055080
0.026472
0.026309
0.056978
0.018678
0.006822
0.009087
0.016104
0.010825
0.011542
0.010428
0.013860
0.012044
0.005924
0.004267
0.007392
0.009280
0.005159
0.017872
0.014356
0.020697
0.009708
0.018842
0.019386
0.029756
0.047669
0.055664
0.039740
0.024911
0.059825
0.062550
0.020871
0.072328
0.063594
0.053657
0.041424
0.027487
0.012055
0.007726
0.021341
0.034446
0.042250
0.047671
0.050001
0.049766
0.077814
0.079359
0.054078
0.051021
0.058615
0.065185
0.043940
0.008857
0.036238
0.052390
0.052336
0.015581
0.058803
0.038433
0.027173
0.026513
0.037076
0.026175
0.027679
0.023740
0.024506
0.055816
0.056929
0.008021
0.013885
0.029390
0.014383
0.032880
0.032586
0.029158
0.036228
0.034579
0.022568
0.021151
0.026092
0.029789
0.019990
0.010896
0.006958
0.039888
0.039607
0.035745
0.035373
0.024586
0.012533
0.036354
0.022871
0.023065
0.031395
0.024734
0.044354
0.017538
0.025779
0.028015
0.007028
0.004778
0.008422
0.005242
0.020360
0.013799
0.008954
0.009761
0.005902
0.011750
0.049386
0.032540
0.044061
0.028382
0.039451
0.034403
0.039127
0.022157
0.015111
0.008673
0.040196
0.016140
0.007649
0.015353
0.014672
0.022917
0.027748
0.031615
0.032261
0.031000
0.029852
0.042653
0.048442
0.043986
0.049767
0.038243
0.039530
0.043908
0.008637
0.016378
0.018773
0.020158
0.027390
0.027354
0.024558
0.035277
0.017855
0.026267
0.042627
0.017561
0.025334
0.005554
0.004480
0.031089
0.049390
0.045703
0.049283
0.035153
0.045746
0.029073
0.037945
0.031600
0.019768
0.019027
0.021282
0.040099
0.023996
0.023145
0.015509
0.044678
0.040214
0.035179
0.036219
0.022167
0.028022
0.032622
0.043303
0.052265
0.050232
0.030172
0.012297
0.007446
0.007057
0.024578
0.033211
0.032529
0.020144
0.021910
0.031266
0.042339
0.053369
0.051560
0.022873
0.023756
0.024581
0.013947
0.009207
0.023060
0.022891
0.023848
0.024606
0.034772
0.013972
0.029680
0.033566
0.013033
0.028704
0.020936
0.007884
0.020178
0.009130
0.027568
0.036914
0.013157
0.020802
0.015910
0.002289
0.049468
0.026910
