# vtk DataFile Version 2.0
Unstructured Grid Example
ASCII
DATASET UNSTRUCTURED_GRID
POINTS 1221 float
-0.000171 -0.000186 0.012488 
0.999829 -0.000190 0.004771 
0.999834 0.999810 -0.007446 
-0.000166 0.999814 0.000270 
0.000215 0.000425 0.062488 
1.000215 0.000421 0.054771 
1.000219 1.000421 0.042554 
0.000219 1.000425 0.050270 
0.000215 0.050425 0.061877 
0.000216 0.100425 0.061266 
0.000216 0.150425 0.060655 
0.000216 0.200425 0.060044 
0.000216 0.250425 0.059434 
0.000216 0.300425 0.058823 
0.000217 0.350425 0.058212 
0.000217 0.400425 0.057601 
0.000217 0.450425 0.056990 
0.000217 0.500425 0.056379 
0.000217 0.550425 0.055768 
0.000218 0.600425 0.055157 
0.000218 0.650425 0.054547 
0.000218 0.700425 0.053936 
0.000218 0.750425 0.053325 
0.000219 0.800425 0.052714 
0.000219 0.850425 0.052103 
0.000219 0.900425 0.051492 
0.000219 0.950425 0.050881 
-0.000171 0.049814 0.011877 
-0.000170 0.099814 0.011266 
-0.000170 0.149814 0.010655 
-0.000170 0.199814 0.010044 
-0.000170 0.249814 0.009434 
-0.000169 0.299814 0.008823 
-0.000169 0.349814 0.008212 
-0.000169 0.399814 0.007601 
-0.000169 0.449814 0.006990 
-0.000169 0.499814 0.006379 
-0.000168 0.549814 0.005768 
-0.000168 0.599814 0.005157 
-0.000168 0.649814 0.004547 
-0.000168 0.699814 0.003936 
-0.000167 0.749814 0.003325 
-0.000167 0.799814 0.002714 
-0.000167 0.849814 0.002103 
-0.000167 0.899814 0.001492 
-0.000167 0.949814 0.000881 
0.000022 0.000119 0.037488 
0.000027 1.000119 0.025270 
0.050215 0.000425 0.062102 
0.100215 0.000424 0.061716 
0.150215 0.000424 0.061330 
0.200215 0.000424 0.060945 
0.250215 0.000424 0.060559 
0.300215 0.000424 0.060173 
0.350215 0.000423 0.059787 
0.400215 0.000423 0.059401 
0.450215 0.000423 0.059016 
0.500215 0.000423 0.058630 
0.550215 0.000422 0.058244 
0.600215 0.000422 0.057858 
0.650215 0.000422 0.057472 
0.700215 0.000422 0.057086 
0.750215 0.000422 0.056701 
0.800215 0.000421 0.056315 
0.850215 0.000421 0.055929 
0.900215 0.000421 0.055543 
0.950215 0.000421 0.055157 
0.049829 -0.000186 0.012102 
0.099829 -0.000186 0.011716 
0.149829 -0.000187 0.011330 
0.199829 -0.000187 0.010945 
0.249829 -0.000187 0.010559 
0.299829 -0.000187 0.010173 
0.349829 -0.000188 0.009787 
0.399829 -0.000188 0.009401 
0.449829 -0.000188 0.009016 
0.499829 -0.000188 0.008630 
0.549829 -0.000188 0.008244 
0.599829 -0.000189 0.007858 
0.649829 -0.000189 0.007472 
0.699829 -0.000189 0.007086 
0.749829 -0.000189 0.006701 
0.799829 -0.000190 0.006315 
0.849829 -0.000190 0.005929 
0.899829 -0.000190 0.005543 
0.949829 -0.000190 0.005157 
1.000022 0.000115 0.029771 
1.000215 0.050421 0.054161 
1.000216 0.100421 0.053550 
1.000216 0.150421 0.052939 
1.000216 0.200421 0.052328 
1.000216 0.250421 0.051717 
1.000216 0.300421 0.051106 
1.000217 0.350421 0.050495 
1.000217 0.400421 0.049884 
1.000217 0.450421 0.049274 
1.000217 0.500421 0.048663 
1.000217 0.550421 0.048052 
1.000218 0.600421 0.047441 
1.000218 0.650421 0.046830 
1.000218 0.700421 0.046219 
1.000218 0.750421 0.045608 
1.000219 0.800421 0.044997 
1.000219 0.850421 0.044387 
1.000219 0.900421 0.043776 
1.000219 0.950421 0.043165 
0.999829 0.049810 0.004161 
0.999830 0.099810 0.003550 
0.999830 0.149810 0.002939 
0.999830 0.199810 0.002328 
0.999830 0.249810 0.001717 
0.999831 0.299810 0.001106 
0.999831 0.349810 0.000495 
0.999831 0.399810 -0.000116 
0.999831 0.449810 -0.000726 
0.999831 0.499810 -0.001337 
0.999832 0.549810 -0.001948 
0.999832 0.599810 -0.002559 
0.999832 0.649810 -0.003170 
0.999832 0.699810 -0.003781 
0.999833 0.749810 -0.004392 
0.999833 0.799810 -0.005003 
0.999833 0.849810 -0.005613 
0.999833 0.899810 -0.006224 
0.999833 0.949810 -0.006835 
1.000027 1.000115 0.017554 
0.950219 1.000421 0.042940 
0.900219 1.000421 0.043326 
0.850219 1.000421 0.043711 
0.800219 1.000421 0.044097 
0.750219 1.000422 0.044483 
0.700219 1.000422 0.044869 
0.650219 1.000422 0.045255 
0.600219 1.000422 0.045641 
0.550219 1.000422 0.046026 
0.500219 1.000423 0.046412 
0.450219 1.000423 0.046798 
0.400219 1.000423 0.047184 
0.350219 1.000423 0.047570 
0.300219 1.000424 0.047956 
0.250219 1.000424 0.048341 
0.200219 1.000424 0.048727 
0.150219 1.000424 0.049113 
0.100219 1.000424 0.049499 
0.050219 1.000425 0.049885 
0.949834 0.999810 -0.007060 
0.899834 0.999810 -0.006674 
0.849834 0.999810 -0.006289 
0.799834 0.999810 -0.005903 
0.749834 0.999811 -0.005517 
0.699834 0.999811 -0.005131 
0.649834 0.999811 -0.004745 
0.599834 0.999811 -0.004359 
0.549834 0.999812 -0.003974 
0.499834 0.999812 -0.003588 
0.449834 0.999812 -0.003202 
0.399834 0.999812 -0.002816 
0.349834 0.999812 -0.002430 
0.299834 0.999813 -0.002044 
0.249834 0.999813 -0.001659 
0.199834 0.999813 -0.001273 
0.149834 0.999813 -0.000887 
0.099834 0.999814 -0.000501 
0.049834 0.999814 -0.000115 
0.024285 1.000045 0.018972 
0.019899 1.000247 0.035534 
0.975674 1.000041 0.011630 
0.980315 1.000242 0.028123 
0.481693 1.000117 0.021554 
0.775027 1.000116 0.019290 
0.675027 1.000116 0.020062 
0.525767 1.000117 0.021214 
0.725027 1.000116 0.019676 
0.625027 1.000117 0.020448 
0.075027 1.000119 0.024692 
0.225027 1.000118 0.023534 
0.575109 1.000117 0.020833 
0.175027 1.000119 0.023920 
0.125027 1.000119 0.024306 
0.875027 1.000116 0.018519 
0.825027 1.000116 0.018904 
0.375027 1.000118 0.022377 
0.918360 1.000115 0.018184 
0.275027 1.000118 0.023148 
0.325027 1.000118 0.022763 
0.425027 1.000118 0.021991 
0.500217 0.500423 0.052521 
0.292533 0.295374 0.056629 
0.707884 0.705497 0.048413 
0.709291 0.291176 0.053464 
0.291143 0.709669 0.051578 
0.501581 0.781836 0.049072 
0.784671 0.498426 0.050350 
0.499716 0.223670 0.055906 
0.224476 0.503169 0.054615 
0.168432 0.171091 0.059105 
0.831208 0.170103 0.054003 
0.830537 0.831414 0.045928 
0.169226 0.830742 0.051039 
0.563863 0.641043 0.050312 
0.436571 0.359802 0.054730 
0.642658 0.438031 0.052184 
0.353593 0.567460 0.052833 
0.640038 0.847212 0.047205 
0.360982 0.154174 0.057826 
0.151519 0.360981 0.056915 
0.846981 0.360605 0.051553 
0.846537 0.641710 0.048122 
0.641740 0.154029 0.055661 
0.358694 0.846816 0.049381 
0.154007 0.635284 0.053545 
0.678494 0.581900 0.050150 
0.560899 0.331244 0.054120 
0.439536 0.669601 0.050922 
0.321964 0.420772 0.054870 
0.533981 0.882430 0.047593 
0.465447 0.118299 0.057458 
0.882506 0.466070 0.049991 
0.120124 0.466038 0.055874 
0.744529 0.896999 0.045791 
0.108159 0.258676 0.058500 
0.258848 0.098230 0.059297 
0.896793 0.256111 0.052446 
0.889856 0.737456 0.046618 
0.737250 0.110784 0.055452 
0.263184 0.890061 0.049590 
0.110483 0.738940 0.052614 
0.601209 0.740447 0.048809 
0.399225 0.260398 0.056233 
0.745459 0.405052 0.051794 
0.251893 0.598237 0.053242 
0.598604 0.521339 0.051506 
0.398247 0.475418 0.053613 
0.611986 0.254378 0.054665 
0.388314 0.746278 0.050381 
0.097814 0.095218 0.060577 
0.902617 0.095214 0.054366 
0.905426 0.902822 0.044478 
0.098784 0.905851 0.050665 
0.437061 0.903505 0.048084 
0.903300 0.563579 0.048639 
0.563373 0.097340 0.056958 
0.097135 0.563582 0.054860 
0.258887 0.202734 0.058020 
0.742058 0.797688 0.047023 
0.797423 0.258588 0.053182 
0.209257 0.745880 0.051767 
0.196413 0.279392 0.057566 
0.798411 0.716520 0.047580 
0.714858 0.207037 0.054449 
0.285577 0.793808 0.050593 
0.502292 0.412349 0.053581 
0.497465 0.588763 0.051463 
0.241056 0.365818 0.056165 
0.759373 0.634820 0.048879 
0.689775 0.501144 0.051049 
0.646180 0.345731 0.053285 
0.308989 0.505328 0.053937 
0.354251 0.655073 0.051758 
0.080462 0.183769 0.059629 
0.177263 0.084712 0.060092 
0.817810 0.919579 0.044949 
0.919373 0.182830 0.053167 
0.917428 0.821408 0.045380 
0.821203 0.083212 0.055141 
0.081061 0.818016 0.051875 
0.185537 0.914637 0.049889 
0.652112 0.655877 0.049450 
0.348307 0.344991 0.055592 
0.514249 0.696963 0.050011 
0.486186 0.303883 0.055030 
0.610422 0.917598 0.046574 
0.389721 0.083467 0.058468 
0.078607 0.395047 0.057062 
0.917338 0.390344 0.050647 
0.925181 0.660918 0.047281 
0.660713 0.075459 0.056474 
0.339962 0.925433 0.048565 
0.074667 0.661867 0.053832 
0.431419 0.822208 0.049120 
0.821208 0.566301 0.049239 
0.568799 0.178334 0.055927 
0.179784 0.567340 0.054176 
0.190636 0.431935 0.055747 
0.573919 0.818740 0.048063 
0.426898 0.179408 0.057009 
0.821860 0.427341 0.050932 
0.565688 0.457981 0.052534 
0.435543 0.542526 0.052506 
0.774496 0.331653 0.052466 
0.225691 0.668674 0.052584 
0.667778 0.781603 0.047793 
0.333520 0.218814 0.057248 
0.677558 0.930760 0.045895 
0.068765 0.318318 0.058075 
0.322935 0.070089 0.059147 
0.930554 0.323082 0.051367 
0.745920 0.560012 0.049897 
0.448055 0.736821 0.050035 
0.552184 0.263750 0.055011 
0.614341 0.595271 0.050482 
0.386200 0.406351 0.054550 
0.258812 0.443687 0.055077 
0.585657 0.393321 0.053170 
0.414778 0.607524 0.051872 
0.450843 0.428478 0.053781 
0.548837 0.572617 0.051264 
0.484999 0.935112 0.047328 
0.934907 0.515640 0.048981 
0.515435 0.065733 0.057714 
0.065528 0.515644 0.055689 
0.500402 0.838932 0.048384 
0.838164 0.507709 0.049824 
0.500556 0.152662 0.056767 
0.153767 0.501639 0.055180 
0.696895 0.843291 0.046814 
0.304127 0.157233 0.058227 
0.842567 0.303246 0.052288 
0.149564 0.702572 0.052757 
0.159811 0.231633 0.058432 
0.842177 0.773613 0.046545 
0.773408 0.158463 0.054591 
0.227027 0.842382 0.050451 
0.670190 0.238601 0.054408 
0.330229 0.762223 0.050634 
0.697117 0.356145 0.052764 
0.303317 0.644700 0.052278 
0.939835 0.606939 0.047827 
0.606733 0.060805 0.057070 
0.394008 0.940101 0.047969 
0.060535 0.607048 0.054611 
0.700473 0.433724 0.051791 
0.304105 0.559044 0.053318 
0.054636 0.054533 0.061407 
0.945795 0.054530 0.054530 
0.946110 0.946000 0.043636 
0.054747 0.946340 0.050510 
0.772962 0.946409 0.044968 
0.055865 0.232728 0.059220 
0.227091 0.054679 0.060074 
0.945387 0.772054 0.045767 
0.771849 0.055253 0.055864 
0.229186 0.945307 0.049177 
0.946744 0.227508 0.052410 
0.055181 0.772061 0.052636 
0.220203 0.160586 0.058834 
0.775519 0.847911 0.046151 
0.847700 0.225122 0.053203 
0.155860 0.775141 0.051822 
0.553412 0.948225 0.046639 
[...]
POINT_DATA 1221
SCALARS u float 1
LOOKUP_TABLE default
0.132175
0.050564
0.078839
0.003895
0.132244
0.050738
0.078953
0.005813
0.125784
0.119326
0.112867
0.106410
0.099954
0.093498
0.087044
0.080592
0.074141
0.067693
0.061249
0.054810
0.048377
0.041953
0.035545
0.029161
0.022822
0.016581
0.010610
0.125712
0.119249
0.112786
0.106324
0.099862
0.093400
0.086938
0.080477
0.074017
0.067557
0.061098
0.054641
0.048185
0.041732
0.035283
0.028841
0.022412
0.016011
0.009694
0.132154
0.003141
0.128164
0.124084
0.120005
0.115926
0.111847
0.107768
0.103690
0.099612
0.095534
0.091457
0.087381
0.083305
0.079230
0.075156
0.071082
0.067010
0.062939
0.058870
0.054803
0.128093
0.124011
0.119929
0.115847
0.111766
0.107684
0.103603
0.099521
0.095440
0.091359
0.087278
0.083198
0.079117
0.075037
0.070957
0.066877
0.062798
0.058719
0.054641
0.050507
0.044310
0.037894
0.031498
0.025137
0.018847
0.012731
0.007248
0.005153
0.009174
0.015011
0.021215
0.027539
0.033916
0.040321
0.046742
0.053174
0.059612
0.066056
0.072503
0.044110
0.037660
0.031216
0.024782
0.018370
0.012013
0.005894
0.002958
0.008145
0.014405
0.020790
0.027213
0.033651
0.040098
0.046550
0.053004
0.059461
0.065920
0.072379
0.078804
0.074879
0.070807
0.066735
0.062664
0.058596
0.054530
0.050466
0.046405
0.042349
0.038299
0.034256
0.030224
0.026208
0.022216
0.018264
0.014385
0.010660
0.007327
0.005203
0.074759
0.070679
0.066599
0.062519
0.058441
0.054362
0.050285
0.046208
0.042133
0.038059
0.033987
0.029918
0.025854
0.021796
0.017751
0.013727
0.009752
0.005926
0.002911
0.001020
0.003105
0.076810
0.077228
0.036491
0.060434
0.052271
0.040088
0.056352
0.048189
0.003508
0.015563
0.044115
0.011500
0.007457
0.068598
0.064516
0.027788
0.072136
0.019635
0.023711
0.031867
0.027147
0.070326
0.017529
0.036999
0.017441
0.011033
0.006239
0.062699
0.049097
0.096478
0.042650
0.043380
0.012103
0.006015
0.050306
0.023651
0.030403
0.030000
0.082964
0.073351
0.017185
0.020492
0.060114
0.008266
0.037849
0.005268
0.043883
0.010982
0.051775
0.025961
0.079079
0.005014
0.062364
0.044827
0.090086
0.098512
0.026360
0.036135
0.057913
0.006658
0.028122
0.013568
0.066147
0.019633
0.034677
0.016712
0.038566
0.049615
0.006452
0.112036
0.046476
0.058650
0.008667
0.020895
0.015250
0.073803
0.051673
0.085019
0.031901
0.034045
0.019371
0.080219
0.026098
0.047347
0.008050
0.038226
0.016278
0.065436
0.012879
0.012188
0.035118
0.041961
0.019272
0.102016
0.106912
0.053683
0.033882
0.049147
0.054635
0.020477
0.005186
0.007693
0.059390
0.005034
0.053469
0.036604
0.089747
0.074898
0.008485
0.029207
0.068696
0.016001
0.040867
0.010584
0.009486
0.062919
0.044478
0.061019
0.021104
0.074336
0.011063
0.027285
0.026988
0.026577
0.027803
0.023893
0.076861
0.043731
0.085600
0.096919
0.015307
0.005137
0.005050
0.053269
0.007157
0.048411
0.053960
0.033921
0.020437
0.040325
0.014287
0.028725
0.011893
0.081787
0.060415
0.017828
0.005349
0.071785
0.055041
0.034084
0.087203
0.024727
0.029609
0.089366
0.036909
0.048837
0.006948
0.046916
0.008393
0.029679
0.024623
0.023532
0.074983
0.022078
0.049055
0.019601
0.035471
0.120813
0.048200
0.067526
0.007399
0.053491
0.097700
0.106726
0.045072
0.062252
0.010067
0.025985
0.028352
0.093613
0.041037
0.034263
0.019929
0.035916
0.005852
0.089039
0.070774
0.079839
0.027705
0.056337
0.005750
0.010096
0.062439
0.046257
0.008945
0.066858
0.006937
0.058349
0.063440
0.011105
0.013987
0.066596
0.110665
0.114847
0.037816
0.061270
0.055004
0.057700
0.016646
0.005313
0.017229
0.043974
0.042105
0.036376
0.042916
0.011860
0.012655
0.028452
0.081615
0.009362
0.078038
0.024910
0.039331
0.015102
0.071901
0.018914
0.021941
0.074821
0.018755
0.037642
0.067257
0.036012
0.014619
0.104697
0.047329
0.050151
0.007936
0.005974
0.056833
0.010636
0.035890
0.089174
0.036212
0.040619
0.013843
0.041336
0.013318
0.014936
0.021105
0.067593
0.043448
0.014186
0.022900
0.031522
0.027166
0.027176
0.073257
0.020308
0.052998
0.005078
0.097286
0.037277
0.090363
0.017654
0.027831
0.019034
0.080877
0.056351
0.044020
0.050076
0.006138
0.023285
0.008518
0.076392
0.057180
0.078756
0.006337
0.057493
0.030666
0.023703
0.066981
0.049668
0.092376
0.103017
0.018770
0.047626
0.036555
0.017849
0.014863
0.039716
0.042923
0.060076
0.043746
0.081716
0.096939
0.008742
0.057478
0.006373
0.006558
0.104145
0.052698
0.040824
0.013764
0.099868
0.022839
0.075867
0.032908
0.021324
0.106167
0.112968
0.031006
0.059677
0.053080
0.060302
0.023313
0.007678
0.006945
0.058375
0.036008
0.007633
0.049250
0.020351
0.034031
0.037951
0.016527
0.005325
0.060122
0.044250
0.010662
0.006047
0.006124
0.050149
0.056888
0.005081
0.052846
0.005032
0.053082
0.020205
0.034038
0.073051
0.042757
0.016238
0.069300
0.026138
0.010563
0.062831
0.048186
0.031116
0.023204
0.021606
0.068924
0.007873
0.039860
0.076400
0.093013
0.005096
0.016356
0.010474
0.069246
0.050091
0.012237
0.015175
0.064728
0.043589
0.084748
0.095474
0.025198
0.029203
0.022173
0.036088
0.033134
0.021219
0.042367
0.055322
0.005348
0.054732
0.034364
0.087481
0.012957
0.031044
0.023249
0.014259
0.010275
0.088144
0.035014
0.066980
0.023174
0.031843
0.031650
0.062515
0.010287
0.015746
0.117407
0.119780
0.042574
0.066448
0.052866
0.064160
0.012158
0.005101
0.068841
0.028067
0.081603
0.085676
0.035103
0.019283
0.028311
0.026980
0.034131
0.064826
0.012348
0.011551
0.064519
0.049029
0.075261
0.006514
0.032591
0.005315
0.005074
0.052941
0.046375
0.008818
0.032265
0.017767
0.018762
0.071605
0.048468
0.048499
0.087980
0.101732
0.012277
0.025388
0.013869
0.078375
0.015541
0.085826
0.062382
0.032716
0.051463
0.005481
0.008593
0.028479
0.025608
0.100117
0.080839
0.028338
0.042697
0.011842
0.030812
0.043308
0.083946
0.011379
0.023909
0.031240
0.085245
0.031250
0.050936
0.005706
0.047801
0.007703
0.046902
0.013969
0.092791
0.038776
0.028400
0.024385
0.041729
0.094865
0.021597
0.054849
0.029593
0.075750
0.047116
0.022962
0.126308
0.049409
0.073024
0.006572
0.058856
0.007302
0.037407
0.006228
0.057148
0.031164
0.023160
0.008813
0.046404
0.072681
0.039327
0.012447
0.092482
0.109642
0.050619
0.054042
0.005225
0.042068
0.012623
0.017262
0.037281
0.089953
0.007261
0.030300
0.006805
0.083405
0.064506
0.075653
0.076286
0.047352
0.048014
0.016568
0.014990
0.049720
0.056183
0.062645
0.069109
0.021438
0.027894
0.034353
0.039953
0.008565
0.010894
0.004625
0.002363
0.023880
0.030337
0.043258
0.036797
0.052479
0.052182
0.130164
0.130562
0.089831
0.109700
0.060711
0.064793
0.056630
0.068876
0.117865
0.121887
0.113782
0.125485
0.101534
0.093430
0.105617
0.097459
0.081122
0.077040
0.072958
0.085205
0.026861
0.070191
0.017013
0.036755
0.016907
0.010187
0.004594
0.063203
0.048559
0.096576
0.042436
0.043529
0.011275
0.004003
0.050659
0.023659
0.029966
0.029683
0.082854
0.073169
0.016656
0.020016
0.059967
0.007069
0.037606
0.003191
0.051599
0.043677
0.010117
0.025621
0.078876
0.002693
0.062268
0.044843
0.090137
0.098522
0.026043
0.036067
0.057750
0.005085
0.027696
0.013088
0.066234
0.020884
0.032949
0.015353
0.038329
0.049478
0.004760
0.111955
0.046308
0.058568
0.007487
0.020365
0.014706
0.073594
0.051391
0.084910
0.031615
0.033781
0.018824
0.080204
0.025750
0.047157
0.006735
0.037972
0.015674
0.065297
0.012160
0.011456
0.042169
0.035740
0.017914
0.101940
0.106820
0.053656
0.033585
0.048973
0.054511
0.020053
0.002889
0.006396
0.002704
0.059270
0.053260
0.036353
0.089646
0.074739
0.007358
0.028862
0.068564
0.015414
0.040655
0.009680
0.008488
0.062719
0.044098
0.060823
0.020667
0.073886
0.010179
0.026972
0.026710
0.023451
0.026238
0.027470
0.076741
0.043585
0.085457
0.096826
0.014713
0.002894
0.002690
0.053052
0.005852
0.048236
0.053746
0.033555
0.020083
0.040070
0.013638
0.028426
0.011093
0.081700
0.060293
0.017373
0.003271
0.070564
0.054947
0.033807
0.087099
0.024363
0.029237
0.089244
0.036667
0.048656
0.005460
0.046724
0.007184
0.028076
0.025546
0.023132
0.074824
0.021586
0.048847
0.011767
0.041437
0.120738
0.047962
0.067307
0.006074
0.053295
0.097583
0.106489
0.044912
0.062116
0.009129
0.025660
0.028031
0.093452
0.040689
0.033981
0.019543
0.035660
0.004049
0.088938
0.070640
0.079819
0.027373
0.056190
0.003853
0.013297
0.062253
0.046125
0.007533
0.066812
0.009489
0.066862
0.063309
0.010267
0.005963
0.057809
0.110583
0.114768
0.037549
0.061044
0.054831
0.057446
0.016121
0.003080
0.009982
0.043724
0.035912
0.042753
0.011012
0.023898
0.029745
0.028130
0.081393
0.008297
0.077931
0.024545
0.039103
0.014464
0.071724
0.018361
0.074690
0.021510
0.018347
0.037420
0.067124
0.035747
0.013976
0.104583
0.047147
0.049939
0.006670
0.004174
0.056634
0.018116
0.035525
0.089024
0.035896
0.040395
0.013164
0.041255
0.012470
0.014291
0.020672
0.067446
0.043224
0.013533
0.022445
0.031243
0.073165
0.019873
0.052826
0.002721
0.097142
0.037042
0.090263
0.017141
0.027484
0.018560
0.080754
0.056177
0.043764
0.049903
0.004386
0.022890
0.007403
0.076135
0.057025
0.078605
0.004685
0.057272
0.030370
0.023315
0.066712
0.049650
0.092310
0.102925
0.018200
0.040989
0.047295
0.036302
0.017356
0.014213
0.039483
0.059960
0.017951
0.035629
0.043564
0.081542
0.096845
0.007655
0.057316
0.004791
0.004981
0.104061
0.052562
0.040600
0.013078
0.099768
0.075785
0.022415
0.032635
0.020879
0.106067
0.112871
0.030712
0.059531
0.052904
0.060159
0.022923
0.006353
0.035745
0.002819
0.056600
0.014059
0.005612
0.049065
0.048076
0.019896
0.033765
0.037722
0.030206
0.015951
0.023421
0.003270
0.059945
0.044118
0.009682
0.004363
0.004334
0.056770
0.049932
0.002752
0.002720
0.052949
0.019723
0.033765
0.072928
0.042544
0.068876
0.015716
0.025781
0.009655
0.062688
0.048007
0.030826
0.022810
0.021202
0.074419
0.004697
0.039633
0.076267
0.092916
0.002851
0.015784
0.009589
0.068963
0.049885
0.011453
0.014574
0.064550
0.043320
0.084662
0.095388
0.025124
0.028617
0.032849
0.020796
0.042178
0.055166
0.003185
0.054544
0.034098
0.087363
0.012241
0.009364
0.088045
0.034754
0.066845
0.027701
0.022795
0.031522
0.031385
0.062372
0.009353
0.068343
0.117330
0.119704
0.042357
0.066299
0.052693
0.064005
0.011378
0.002735
0.068719
0.052013
0.081496
0.085548
0.011619
0.034215
0.019427
0.015243
0.026940
0.026687
0.033839
0.010740
0.063809
0.048701
0.064804
0.006881
0.032311
0.003213
0.006834
0.062680
0.046278
0.007681
0.021664
0.031983
0.070518
0.018261
0.048345
0.087867
0.101642
0.011518
0.025023
0.013203
0.052546
0.078184
0.014952
0.085723
0.062238
0.032436
0.051288
0.003406
0.007480
0.027966
0.028164
0.025211
0.100038
0.080726
0.042493
0.011273
0.030513
0.043101
0.083842
0.010519
0.030032
0.023596
0.085156
0.030984
0.050761
0.003751
0.047560
0.006446
0.007227
0.046709
0.092697
0.038573
0.028084
0.023854
0.041526
0.094769
0.021180
0.054791
0.029244
0.075631
0.046938
0.022499
0.126235
0.049221
0.072886
0.004969
0.058703
0.005939
0.004508
0.057000
0.030693
0.022943
0.017975
0.035806
0.007584
0.046207
0.072551
0.039108
0.011708
0.092383
0.109553
0.050452
0.053867
0.002970
0.041873
0.011837
0.016643
0.037036
0.089871
0.030002
0.005338
0.083272
0.064375
0.006065
0.006194
0.128970
0.129632
0.065147
0.096603
0.031977
0.025520
0.019067
0.012625
0.103066
0.109519
0.115898
0.121596
0.090139
0.070749
0.083675
0.077212
0.051360
0.057823
0.038437
0.044898
