# vtk DataFile Version 2.0
Unstructured Grid Example
ASCII
DATASET UNSTRUCTURED_GRID
POINTS 1221 float
-0.000156 -0.000170 0.011444 
0.999844 -0.000174 0.004373 
0.999847 0.999826 -0.006824 
-0.000153 0.999830 0.000248 
0.000197 0.000389 0.061444 
1.000197 0.000385 0.054373 
1.000201 1.000385 0.043176 
0.000201 1.000389 0.050248 
0.000197 0.050389 0.060884 
0.000197 0.100389 0.060325 
0.000198 0.150389 0.059765 
0.000198 0.200389 0.059205 
0.000198 0.250389 0.058645 
0.000198 0.300389 0.058085 
0.000198 0.350389 0.057526 
0.000199 0.400389 0.056966 
0.000199 0.450389 0.056406 
0.000199 0.500389 0.055846 
0.000199 0.550389 0.055286 
0.000199 0.600389 0.054726 
0.000200 0.650389 0.054167 
0.000200 0.700389 0.053607 
0.000200 0.750389 0.053047 
0.000200 0.800389 0.052487 
0.000200 0.850389 0.051927 
0.000201 0.900389 0.051368 
0.000201 0.950389 0.050808 
-0.000156 0.049830 0.010884 
-0.000156 0.099830 0.010325 
-0.000156 0.149830 0.009765 
-0.000156 0.199830 0.009205 
-0.000155 0.249830 0.008645 
-0.000155 0.299830 0.008085 
-0.000155 0.349830 0.007526 
-0.000155 0.399830 0.006966 
-0.000155 0.449830 0.006406 
-0.000154 0.499830 0.005846 
-0.000154 0.549830 0.005286 
-0.000154 0.599830 0.004726 
-0.000154 0.649830 0.004167 
-0.000154 0.699830 0.003607 
-0.000153 0.749830 0.003047 
-0.000153 0.799830 0.002487 
-0.000153 0.849830 0.001927 
-0.000153 0.899830 0.001368 
-0.000153 0.949830 0.000808 
0.000020 0.000109 0.036444 
0.000024 1.000109 0.025248 
0.050197 0.000389 0.061091 
0.100197 0.000389 0.060737 
0.150197 0.000389 0.060384 
0.200197 0.000389 0.060030 
0.250197 0.000388 0.059676 
0.300197 0.000388 0.059323 
0.350197 0.000388 0.058969 
0.400197 0.000388 0.058616 
0.450197 0.000388 0.058262 
0.500197 0.000387 0.057909 
0.550197 0.000387 0.057555 
0.600197 0.000387 0.057201 
0.650197 0.000387 0.056848 
0.700197 0.000387 0.056494 
0.750197 0.000386 0.056141 
0.800197 0.000386 0.055787 
0.850197 0.000386 0.055433 
0.900197 0.000386 0.055080 
0.950197 0.000386 0.054726 
0.049844 -0.000171 0.011091 
0.099844 -0.000171 0.010737 
0.149844 -0.000171 0.010384 
0.199844 -0.000171 0.010030 
0.249844 -0.000171 0.009676 
0.299844 -0.000172 0.009323 
0.349844 -0.000172 0.008969 
0.399844 -0.000172 0.008616 
0.449844 -0.000172 0.008262 
0.499844 -0.000172 0.007909 
0.549844 -0.000173 0.007555 
0.599844 -0.000173 0.007201 
0.649844 -0.000173 0.006848 
0.699844 -0.000173 0.006494 
0.749844 -0.000173 0.006141 
0.799844 -0.000174 0.005787 
0.849844 -0.000174 0.005433 
0.899844 -0.000174 0.005080 
0.949844 -0.000174 0.004726 
1.000020 0.000105 0.029373 
1.000197 0.050385 0.053813 
1.000197 0.100385 0.053253 
1.000198 0.150385 0.052693 
1.000198 0.200385 0.052133 
1.000198 0.250385 0.051574 
1.000198 0.300385 0.051014 
1.000198 0.350385 0.050454 
1.000199 0.400385 0.049894 
1.000199 0.450385 0.049334 
1.000199 0.500385 0.048774 
1.000199 0.550385 0.048215 
1.000199 0.600385 0.047655 
1.000200 0.650385 0.047095 
1.000200 0.700385 0.046535 
1.000200 0.750385 0.045975 
1.000200 0.800385 0.045416 
1.000200 0.850385 0.044856 
1.000201 0.900385 0.044296 
1.000201 0.950385 0.043736 
0.999844 0.049826 0.003813 
0.999844 0.099826 0.003253 
0.999844 0.149826 0.002693 
0.999844 0.199826 0.002133 
0.999845 0.249826 0.001574 
0.999845 0.299826 0.001014 
0.999845 0.349826 0.000454 
0.999845 0.399826 -0.000106 
0.999845 0.449826 -0.000666 
0.999846 0.499826 -0.001226 
0.999846 0.549826 -0.001785 
0.999846 0.599826 -0.002345 
0.999846 0.649826 -0.002905 
0.999846 0.699826 -0.003465 
0.999847 0.749826 -0.004025 
0.999847 0.799826 -0.004584 
0.999847 0.849826 -0.005144 
0.999847 0.899826 -0.005704 
0.999847 0.949826 -0.006264 
1.000024 1.000105 0.018176 
0.950201 1.000386 0.043530 
0.900201 1.000386 0.043883 
0.850201 1.000386 0.044237 
0.800201 1.000386 0.044591 
0.750201 1.000386 0.044944 
0.700201 1.000387 0.045298 
0.650201 1.000387 0.045651 
0.600201 1.000387 0.046005 
0.550201 1.000387 0.046358 
0.500201 1.000387 0.046712 
0.450201 1.000388 0.047066 
0.400201 1.000388 0.047419 
0.350201 1.000388 0.047773 
0.300201 1.000388 0.048126 
0.250201 1.000388 0.048480 
0.200201 1.000389 0.048834 
0.150201 1.000389 0.049187 
0.100201 1.000389 0.049541 
0.050201 1.000389 0.049894 
0.949847 0.999826 -0.006470 
0.899847 0.999826 -0.006117 
0.849847 0.999826 -0.005763 
0.799847 0.999826 -0.005409 
0.749847 0.999827 -0.005056 
0.699847 0.999827 -0.004702 
0.649847 0.999827 -0.004349 
0.599847 0.999827 -0.003995 
0.549847 0.999827 -0.003642 
0.499847 0.999828 -0.003288 
0.449847 0.999828 -0.002934 
0.399847 0.999828 -0.002581 
0.349847 0.999828 -0.002227 
0.299847 0.999828 -0.001874 
0.249847 0.999829 -0.001520 
0.199847 0.999829 -0.001166 
0.149847 0.999829 -0.000813 
0.099847 0.999829 -0.000459 
0.049847 0.999829 -0.000106 
0.024287 1.000041 0.018965 
0.019890 1.000226 0.035525 
0.975676 1.000037 0.012237 
0.980306 1.000222 0.028733 
0.481691 1.000108 0.021842 
0.775024 1.000106 0.019767 
0.675024 1.000107 0.020475 
0.525765 1.000107 0.021530 
0.725024 1.000107 0.020121 
0.625024 1.000107 0.020828 
0.075024 1.000109 0.024718 
0.225024 1.000109 0.023657 
0.575107 1.000107 0.021181 
0.175024 1.000109 0.024010 
0.125024 1.000109 0.024364 
0.875024 1.000106 0.019060 
0.825024 1.000106 0.019414 
0.375024 1.000108 0.022596 
0.918358 1.000106 0.018754 
0.275024 1.000108 0.023303 
0.325024 1.000108 0.022950 
0.425024 1.000108 0.022242 
0.500199 0.500387 0.052310 
0.292515 0.295338 0.056075 
0.707866 0.705462 0.048546 
0.709273 0.291141 0.053175 
0.291125 0.709634 0.051446 
0.501563 0.781801 0.049150 
0.784653 0.498391 0.050321 
0.499698 0.223634 0.055412 
0.224458 0.503134 0.054229 
0.168414 0.171056 0.058344 
0.831190 0.170068 0.053668 
0.830519 0.831378 0.046268 
0.169208 0.830707 0.050953 
0.563845 0.641008 0.050286 
0.436553 0.359767 0.054335 
0.642640 0.437995 0.052002 
0.353575 0.567424 0.052597 
0.640020 0.847177 0.047439 
0.360964 0.154139 0.057172 
0.151501 0.360946 0.056337 
0.846963 0.360569 0.051424 
0.846519 0.641675 0.048279 
0.641722 0.153994 0.055188 
0.358676 0.846781 0.049433 
0.153989 0.635249 0.053249 
0.678476 0.581865 0.050137 
0.560880 0.331209 0.053775 
0.439518 0.669566 0.050845 
0.321946 0.420737 0.054463 
0.533963 0.882395 0.047794 
0.465429 0.118263 0.056835 
0.882487 0.466035 0.049992 
0.120106 0.466003 0.055383 
0.744511 0.896964 0.046142 
0.108141 0.258640 0.057789 
0.258830 0.098194 0.058520 
0.896775 0.256076 0.052241 
0.889838 0.737421 0.046901 
0.737232 0.110749 0.054997 
0.263166 0.890026 0.049624 
0.110465 0.738904 0.052396 
0.601191 0.740412 0.048909 
0.399207 0.260363 0.055712 
0.745441 0.405016 0.051644 
0.251875 0.598201 0.052971 
0.598585 0.521303 0.051380 
0.398229 0.475383 0.053311 
0.611968 0.254342 0.054275 
0.388296 0.746243 0.050349 
0.097796 0.095182 0.059693 
0.902599 0.095179 0.054002 
0.905408 0.902787 0.044939 
0.098766 0.905816 0.050610 
0.437043 0.903470 0.048244 
0.903282 0.563543 0.048753 
0.563355 0.097305 0.056377 
0.097117 0.563547 0.054454 
0.258869 0.202699 0.057350 
0.742040 0.797653 0.047272 
0.797405 0.258553 0.052916 
0.209239 0.745844 0.051620 
0.196395 0.279357 0.056933 
0.798393 0.716485 0.047782 
0.714840 0.207002 0.054077 
0.285558 0.793773 0.050543 
0.502274 0.412314 0.053282 
0.497447 0.588728 0.051341 
0.241038 0.365783 0.055650 
0.759355 0.634784 0.048973 
0.689757 0.501109 0.050962 
0.646162 0.345696 0.053010 
0.308971 0.505293 0.053608 
0.354233 0.655038 0.051611 
0.080444 0.183733 0.058824 
0.177245 0.084677 0.059249 
0.817792 0.919544 0.045371 
0.919355 0.182794 0.052902 
0.917409 0.821373 0.045766 
0.821185 0.083177 0.054712 
0.081043 0.817980 0.051719 
0.185518 0.914602 0.049898 
0.652094 0.655841 0.049496 
0.348289 0.344955 0.055125 
0.514231 0.696927 0.050011 
0.486168 0.303847 0.054610 
0.610403 0.917562 0.046860 
0.389703 0.083431 0.057760 
0.078589 0.395012 0.056472 
0.917319 0.390309 0.050593 
0.925163 0.660883 0.047508 
0.660695 0.075424 0.055933 
0.339944 0.925398 0.048685 
0.074649 0.661831 0.053512 
0.431401 0.822173 0.049194 
0.821190 0.566266 0.049303 
0.568781 0.178299 0.055432 
0.179766 0.567304 0.053827 
0.190618 0.431899 0.055266 
0.573901 0.818705 0.048225 
0.426880 0.179372 0.056423 
0.821842 0.427305 0.050854 
0.565669 0.457946 0.052322 
0.435525 0.542491 0.052296 
0.774478 0.331617 0.052260 
0.225673 0.668638 0.052368 
0.667759 0.781568 0.047977 
0.333502 0.218779 0.056642 
0.677540 0.930725 0.046238 
0.068747 0.318283 0.057400 
0.322917 0.070054 0.058382 
0.930536 0.323047 0.051253 
0.745902 0.559977 0.049906 
0.448037 0.736786 0.050032 
0.552166 0.263715 0.054593 
0.614323 0.595235 0.050441 
0.386182 0.406316 0.054170 
0.258794 0.443652 0.054653 
0.585639 0.393286 0.052905 
0.414760 0.607489 0.051715 
0.450824 0.428443 0.053465 
0.548819 0.572582 0.051158 
0.484981 0.935077 0.047551 
0.934889 0.515605 0.049066 
0.515417 0.065698 0.057070 
0.065510 0.515609 0.055214 
0.500384 0.838897 0.048519 
0.838146 0.507674 0.049839 
0.500538 0.152627 0.056202 
0.153749 0.501603 0.054747 
0.696877 0.843256 0.047081 
0.304109 0.157197 0.057539 
0.842549 0.303211 0.052097 
0.149545 0.702537 0.052527 
0.159793 0.231598 0.057727 
0.842159 0.773578 0.046833 
0.773390 0.158428 0.054207 
0.227009 0.842347 0.050413 
0.670172 0.238566 0.054040 
0.330211 0.762188 0.050581 
0.697099 0.356110 0.052533 
0.303299 0.644665 0.052087 
0.939817 0.606904 0.048009 
0.606715 0.060769 0.056479 
0.393990 0.940065 0.048139 
0.060517 0.607012 0.054226 
0.700454 0.433689 0.051641 
0.304087 0.559009 0.053041 
0.054618 0.054498 0.060454 
0.945777 0.054494 0.054152 
0.946092 0.945965 0.044168 
0.054729 0.946305 0.050468 
0.772944 0.946374 0.045388 
0.055847 0.232692 0.058450 
0.227073 0.054644 0.059232 
0.945369 0.772019 0.046121 
0.771831 0.055217 0.055374 
0.229168 0.945272 0.049246 
0.946726 0.227473 0.052208 
0.055163 0.772026 0.052416 
0.220185 0.160551 0.058095 
0.775501 0.847876 0.046473 
0.847682 0.225087 0.052935 
0.155842 0.775106 0.051670 
0.553394 0.948190 0.046920 
[...]
POINT_DATA 1221
SCALARS u float 1
LOOKUP_TABLE default
0.132175
0.050564
0.078839
0.003895
0.132244
0.050738
0.078953
0.005813
0.125784
0.119326
0.112867
0.106410
0.099954
0.093498
0.087044
0.080592
0.074141
0.067693
0.061249
0.054810
0.048377
0.041953
0.035545
0.029161
0.022822
0.016581
0.010610
0.125712
0.119249
0.112786
0.106324
0.099862
0.093400
0.086938
0.080477
0.074017
0.067557
0.061098
0.054641
0.048185
0.041732
0.035283
0.028841
0.022412
0.016011
0.009694
0.132154
0.003141
0.128164
0.124084
0.120005
0.115926
0.111847
0.107768
0.103690
0.099612
0.095534
0.091457
0.087381
0.083305
0.079230
0.075156
0.071082
0.067010
0.062939
0.058870
0.054803
0.128093
0.124011
0.119929
0.115847
0.111766
0.107684
0.103603
0.099521
0.095440
0.091359
0.087278
0.083198
0.079117
0.075037
0.070957
0.066877
0.062798
0.058719
0.054641
0.050507
0.044310
0.037894
0.031498
0.025137
0.018847
0.012731
0.007248
0.005153
0.009174
0.015011
0.021215
0.027539
0.033916
0.040321
0.046742
0.053174
0.059612
0.066056
0.072503
0.044110
0.037660
0.031216
0.024782
0.018370
0.012013
0.005894
0.002958
0.008145
0.014405
0.020790
0.027213
0.033651
0.040098
0.046550
0.053004
0.059461
0.065920
0.072379
0.078804
0.074879
0.070807
0.066735
0.062664
0.058596
0.054530
0.050466
0.046405
0.042349
0.038299
0.034256
0.030224
0.026208
0.022216
0.018264
0.014385
0.010660
0.007327
0.005203
0.074759
0.070679
0.066599
0.062519
0.058441
0.054362
0.050285
0.046208
0.042133
0.038059
0.033987
0.029918
0.025854
0.021796
0.017751
0.013727
0.009752
0.005926
0.002911
0.001020
0.003105
0.076810
0.077228
0.036491
0.060434
0.052271
0.040088
0.056352
0.048189
0.003508
0.015563
0.044115
0.011500
0.007457
0.068598
0.064516
0.027788
0.072136
0.019635
0.023711
0.031867
0.027147
0.070326
0.017529
0.036999
0.017441
0.011033
0.006239
0.062699
0.049097
0.096478
0.042650
0.043380
0.012103
0.006015
0.050306
0.023651
0.030403
0.030000
0.082964
0.073351
0.017185
0.020492
0.060114
0.008266
0.037849
0.005268
0.043883
0.010982
0.051775
0.025961
0.079079
0.005014
0.062364
0.044827
0.090086
0.098512
0.026360
0.036135
0.057913
0.006658
0.028122
0.013568
0.066147
0.019633
0.034677
0.016712
0.038566
0.049615
0.006452
0.112036
0.046476
0.058650
0.008667
0.020895
0.015250
0.073803
0.051673
0.085019
0.031901
0.034045
0.019371
0.080219
0.026098
0.047347
0.008050
0.038226
0.016278
0.065436
0.012879
0.012188
0.035118
0.041961
0.019272
0.102016
0.106912
0.053683
0.033882
0.049147
0.054635
0.020477
0.005186
0.007693
0.059390
0.005034
0.053469
0.036604
0.089747
0.074898
0.008485
0.029207
0.068696
0.016001
0.040867
0.010584
0.009486
0.062919
0.044478
0.061019
0.021104
0.074336
0.011063
0.027285
0.026988
0.026577
0.027803
0.023893
0.076861
0.043731
0.085600
0.096919
0.015307
0.005137
0.005050
0.053269
0.007157
0.048411
0.053960
0.033921
0.020437
0.040325
0.014287
0.028725
0.011893
0.081787
0.060415
0.017828
0.005349
0.071785
0.055041
0.034084
0.087203
0.024727
0.029609
0.089366
0.036909
0.048837
0.006948
0.046916
0.008393
0.029679
0.024623
0.023532
0.074983
0.022078
0.049055
0.019601
0.035471
0.120813
0.048200
0.067526
0.007399
0.053491
0.097700
0.106726
0.045072
0.062252
0.010067
0.025985
0.028352
0.093613
0.041037
0.034263
0.019929
0.035916
0.005852
0.089039
0.070774
0.079839
0.027705
0.056337
0.005750
0.010096
0.062439
0.046257
0.008945
0.066858
0.006937
0.058349
0.063440
0.011105
0.013987
0.066596
0.110665
0.114847
0.037816
0.061270
0.055004
0.057700
0.016646
0.005313
0.017229
0.043974
0.042105
0.036376
0.042916
0.011860
0.012655
0.028452
0.081615
0.009362
0.078038
0.024910
0.039331
0.015102
0.071901
0.018914
0.021941
0.074821
0.018755
0.037642
0.067257
0.036012
0.014619
0.104697
0.047329
0.050151
0.007936
0.005974
0.056833
0.010636
0.035890
0.089174
0.036212
0.040619
0.013843
0.041336
0.013318
0.014936
0.021105
0.067593
0.043448
0.014186
0.022900
0.031522
0.027166
0.027176
0.073257
0.020308
0.052998
0.005078
0.097286
0.037277
0.090363
0.017654
0.027831
0.019034
0.080877
0.056351
0.044020
0.050076
0.006138
0.023285
0.008518
0.076392
0.057180
0.078756
0.006337
0.057493
0.030666
0.023703
0.066981
0.049668
0.092376
0.103017
0.018770
0.047626
0.036555
0.017849
0.014863
0.039716
0.042923
0.060076
0.043746
0.081716
0.096939
0.008742
0.057478
0.006373
0.006558
0.104145
0.052698
0.040824
0.013764
0.099868
0.022839
0.075867
0.032908
0.021324
0.106167
0.112968
0.031006
0.059677
0.053080
0.060302
0.023313
0.007678
0.006945
0.058375
0.036008
0.007633
0.049250
0.020351
0.034031
0.037951
0.016527
0.005325
0.060122
0.044250
0.010662
0.006047
0.006124
0.050149
0.056888
0.005081
0.052846
0.005032
0.053082
0.020205
0.034038
0.073051
0.042757
0.016238
0.069300
0.026138
0.010563
0.062831
0.048186
0.031116
0.023204
0.021606
0.068924
0.007873
0.039860
0.076400
0.093013
0.005096
0.016356
0.010474
0.069246
0.050091
0.012237
0.015175
0.064728
0.043589
0.084748
0.095474
0.025198
0.029203
0.022173
0.036088
0.033134
0.021219
0.042367
0.055322
0.005348
0.054732
0.034364
0.087481
0.012957
0.031044
0.023249
0.014259
0.010275
0.088144
0.035014
0.066980
0.023174
0.031843
0.031650
0.062515
0.010287
0.015746
0.117407
0.119780
0.042574
0.066448
0.052866
0.064160
0.012158
0.005101
0.068841
0.028067
0.081603
0.085676
0.035103
0.019283
0.028311
0.026980
0.034131
0.064826
0.012348
0.011551
0.064519
0.049029
0.075261
0.006514
0.032591
0.005315
0.005074
0.052941
0.046375
0.008818
0.032265
0.017767
0.018762
0.071605
0.048468
0.048499
0.087980
0.101732
0.012277
0.025388
0.013869
0.078375
0.015541
0.085826
0.062382
0.032716
0.051463
0.005481
0.008593
0.028479
0.025608
0.100117
0.080839
0.028338
0.042697
0.011842
0.030812
0.043308
0.083946
0.011379
0.023909
0.031240
0.085245
0.031250
0.050936
0.005706
0.047801
0.007703
0.046902
0.013969
0.092791
0.038776
0.028400
0.024385
0.041729
0.094865
0.021597
0.054849
0.029593
0.075750
0.047116
0.022962
0.126308
0.049409
0.073024
0.006572
0.058856
0.007302
0.037407
0.006228
0.057148
0.031164
0.023160
0.008813
0.046404
0.072681
0.039327
0.012447
0.092482
0.109642
0.050619
0.054042
0.005225
0.042068
0.012623
0.017262
0.037281
0.089953
0.007261
0.030300
0.006805
0.083405
0.064506
0.075653
0.076286
0.047352
0.048014
0.016568
0.014990
0.049720
0.056183
0.062645
0.069109
0.021438
0.027894
0.034353
0.039953
0.008565
0.010894
0.004625
0.002363
0.023880
0.030337
0.043258
0.036797
0.052479
0.052182
0.130164
0.130562
0.089831
0.109700
0.060711
0.064793
0.056630
0.068876
0.117865
0.121887
0.113782
0.125485
0.101534
0.093430
0.105617
0.097459
0.081122
0.077040
0.072958
0.085205
0.026861
0.070191
0.017013
0.036755
0.016907
0.010187
0.004594
0.063203
0.048559
0.096576
0.042436
0.043529
0.011275
0.004003
0.050659
0.023659
0.029966
0.029683
0.082854
0.073169
0.016656
0.020016
0.059967
0.007069
0.037606
0.003191
0.051599
0.043677
0.010117
0.025621
0.078876
0.002693
0.062268
0.044843
0.090137
0.098522
0.026043
0.036067
0.057750
0.005085
0.027696
0.013088
0.066234
0.020884
0.032949
0.015353
0.038329
0.049478
0.004760
0.111955
0.046308
0.058568
0.007487
0.020365
0.014706
0.073594
0.051391
0.084910
0.031615
0.033781
0.018824
0.080204
0.025750
0.047157
0.006735
0.037972
0.015674
0.065297
0.012160
0.011456
0.042169
0.035740
0.017914
0.101940
0.106820
0.053656
0.033585
0.048973
0.054511
0.020053
0.002889
0.006396
0.002704
0.059270
0.053260
0.036353
0.089646
0.074739
0.007358
0.028862
0.068564
0.015414
0.040655
0.009680
0.008488
0.062719
0.044098
0.060823
0.020667
0.073886
0.010179
0.026972
0.026710
0.023451
0.026238
0.027470
0.076741
0.043585
0.085457
0.096826
0.014713
0.002894
0.002690
0.053052
0.005852
0.048236
0.053746
0.033555
0.020083
0.040070
0.013638
0.028426
0.011093
0.081700
0.060293
0.017373
0.003271
0.070564
0.054947
0.033807
0.087099
0.024363
0.029237
0.089244
0.036667
0.048656
0.005460
0.046724
0.007184
0.028076
0.025546
0.023132
0.074824
0.021586
0.048847
0.011767
0.041437
0.120738
0.047962
0.067307
0.006074
0.053295
0.097583
0.106489
0.044912
0.062116
0.009129
0.025660
0.028031
0.093452
0.040689
0.033981
0.019543
0.035660
0.004049
0.088938
0.070640
0.079819
0.027373
0.056190
0.003853
0.013297
0.062253
0.046125
0.007533
0.066812
0.009489
0.066862
0.063309
0.010267
0.005963
0.057809
0.110583
0.114768
0.037549
0.061044
0.054831
0.057446
0.016121
0.003080
0.009982
0.043724
0.035912
0.042753
0.011012
0.023898
0.029745
0.028130
0.081393
0.008297
0.077931
0.024545
0.039103
0.014464
0.071724
0.018361
0.074690
0.021510
0.018347
0.037420
0.067124
0.035747
0.013976
0.104583
0.047147
0.049939
0.006670
0.004174
0.056634
0.018116
0.035525
0.089024
0.035896
0.040395
0.013164
0.041255
0.012470
0.014291
0.020672
0.067446
0.043224
0.013533
0.022445
0.031243
0.073165
0.019873
0.052826
0.002721
0.097142
0.037042
0.090263
0.017141
0.027484
0.018560
0.080754
0.056177
0.043764
0.049903
0.004386
0.022890
0.007403
0.076135
0.057025
0.078605
0.004685
0.057272
0.030370
0.023315
0.066712
0.049650
0.092310
0.102925
0.018200
0.040989
0.047295
0.036302
0.017356
0.014213
0.039483
0.059960
0.017951
0.035629
0.043564
0.081542
0.096845
0.007655
0.057316
0.004791
0.004981
0.104061
0.052562
0.040600
0.013078
0.099768
0.075785
0.022415
0.032635
0.020879
0.106067
0.112871
0.030712
0.059531
0.052904
0.060159
0.022923
0.006353
0.035745
0.002819
0.056600
0.014059
0.005612
0.049065
0.048076
0.019896
0.033765
0.037722
0.030206
0.015951
0.023421
0.003270
0.059945
0.044118
0.009682
0.004363
0.004334
0.056770
0.049932
0.002752
0.002720
0.052949
0.019723
0.033765
0.072928
0.042544
0.068876
0.015716
0.025781
0.009655
0.062688
0.048007
0.030826
0.022810
0.021202
0.074419
0.004697
0.039633
0.076267
0.092916
0.002851
0.015784
0.009589
0.068963
0.049885
0.011453
0.014574
0.064550
0.043320
0.084662
0.095388
0.025124
0.028617
0.032849
0.020796
0.042178
0.055166
0.003185
0.054544
0.034098
0.087363
0.012241
0.009364
0.088045
0.034754
0.066845
0.027701
0.022795
0.031522
0.031385
0.062372
0.009353
0.068343
0.117330
0.119704
0.042357
0.066299
0.052693
0.064005
0.011378
0.002735
0.068719
0.052013
0.081496
0.085548
0.011619
0.034215
0.019427
0.015243
0.026940
0.026687
0.033839
0.010740
0.063809
0.048701
0.064804
0.006881
0.032311
0.003213
0.006834
0.062680
0.046278
0.007681
0.021664
0.031983
0.070518
0.018261
0.048345
0.087867
0.101642
0.011518
0.025023
0.013203
0.052546
0.078184
0.014952
0.085723
0.062238
0.032436
0.051288
0.003406
0.007480
0.027966
0.028164
0.025211
0.100038
0.080726
0.042493
0.011273
0.030513
0.043101
0.083842
0.010519
0.030032
0.023596
0.085156
0.030984
0.050761
0.003751
0.047560
0.006446
0.007227
0.046709
0.092697
0.038573
0.028084
0.023854
0.041526
0.094769
0.021180
0.054791
0.029244
0.075631
0.046938
0.022499
0.126235
0.049221
0.072886
0.004969
0.058703
0.005939
0.004508
0.057000
0.030693
0.022943
0.017975
0.035806
0.007584
0.046207
0.072551
0.039108
0.011708
0.092383
0.109553
0.050452
0.053867
0.002970
0.041873
0.011837
0.016643
0.037036
0.089871
0.030002
0.005338
0.083272
0.064375
0.006065
0.006194
0.128970
0.129632
0.065147
0.096603
0.031977
0.025520
0.019067
0.012625
0.103066
0.109519
0.115898
0.121596
0.090139
0.070749
0.083675
0.077212
0.051360
0.057823
0.038437
0.044898
