# vtk DataFile Version 2.0
Unstructured Grid Example
ASCII
DATASET UNSTRUCTURED_GRID
POINTS 1221 float
-0.003651 -0.000960 -0.000411 
0.991891 -0.007370 -0.000687 
0.997443 0.998430 0.002741 
-0.007278 0.992554 -0.002314 
-0.002744 -0.002008 0.049568 
0.992624 -0.007192 0.049322 
0.996067 0.998179 0.052760 
-0.008689 0.992632 0.047686 
-0.002247 0.048056 0.050687 
-0.001168 0.098059 0.051793 
-0.000036 0.147915 0.052599 
0.000455 0.197212 0.052484 
0.000228 0.246625 0.051908 
-0.001111 0.295965 0.050859 
-0.003175 0.345857 0.049605 
-0.005557 0.396264 0.048323 
-0.007245 0.447460 0.047678 
-0.007630 0.499197 0.047738 
-0.006521 0.551053 0.048356 
-0.004049 0.602236 0.049126 
-0.000955 0.652650 0.049821 
0.001894 0.702079 0.050021 
0.003576 0.750616 0.049587 
0.003616 0.798602 0.049054 
0.002163 0.845860 0.048728 
-0.000894 0.894100 0.048456 
-0.004833 0.943074 0.047971 
-0.003121 0.049009 0.000688 
-0.002166 0.098986 0.001788 
-0.000963 0.148383 0.002426 
-0.000181 0.197129 0.002325 
-0.000301 0.246155 0.001776 
-0.001437 0.295322 0.000808 
-0.003343 0.344995 -0.000328 
-0.005285 0.395759 -0.001292 
-0.006726 0.447534 -0.001791 
-0.007012 0.499534 -0.001636 
-0.005900 0.551441 -0.001159 
-0.003401 0.602544 -0.000559 
-0.000432 0.652808 -0.000256 
0.002389 0.701839 -0.000324 
0.004216 0.750250 -0.000880 
0.004373 0.798162 -0.001484 
0.002820 0.846039 -0.001840 
-0.000022 0.894220 -0.001933 
-0.003566 0.943006 -0.002086 
-0.003174 -0.001471 0.024587 
-0.007939 0.992644 0.022717 
0.047324 -0.002241 0.048711 
0.097409 -0.001869 0.048079 
0.147118 -0.001245 0.048151 
0.196478 -0.000655 0.048747 
0.245908 -0.000822 0.049653 
0.295600 -0.001703 0.050601 
0.345831 -0.003106 0.051444 
0.396566 -0.004554 0.051682 
0.447981 -0.005691 0.051147 
0.499722 -0.005910 0.049955 
0.551250 -0.004957 0.048704 
0.601951 -0.002876 0.047869 
0.651742 -0.000376 0.047915 
0.700629 0.002263 0.048872 
0.749441 0.003768 0.049972 
0.797638 0.003841 0.050699 
0.845631 0.002560 0.051074 
0.894101 -0.000118 0.050773 
0.943022 -0.003509 0.050112 
0.046530 -0.001273 -0.001274 
0.096938 -0.001095 -0.001846 
0.147265 -0.000805 -0.001985 
0.196952 -0.000661 -0.001240 
0.246551 -0.000892 -0.000395 
0.296371 -0.001792 0.000593 
0.346172 -0.003317 0.001603 
0.396443 -0.004911 0.002001 
0.447299 -0.005959 0.001578 
0.498743 -0.005951 0.000472 
0.550375 -0.004839 -0.000890 
0.601489 -0.002532 -0.001857 
0.652043 0.000175 -0.002183 
0.701477 0.002640 -0.001417 
0.749812 0.004158 -0.000551 
0.797845 0.003969 0.000171 
0.845551 0.002454 0.000611 
0.893696 -0.000214 0.000464 
0.942394 -0.003696 0.000006 
0.992303 -0.007252 0.024321 
0.996293 0.043185 0.049122 
0.999943 0.094309 0.048826 
1.002805 0.145807 0.048597 
1.004225 0.198464 0.048653 
1.004151 0.250475 0.048780 
1.002207 0.301591 0.049195 
0.999367 0.352707 0.049671 
0.996255 0.402429 0.050322 
0.993720 0.451243 0.050897 
0.992510 0.499388 0.051255 
0.992858 0.547420 0.051325 
0.994460 0.596160 0.051223 
0.996583 0.645524 0.050966 
0.998463 0.695713 0.050887 
0.999546 0.746274 0.050874 
0.999775 0.797092 0.051095 
0.998934 0.847913 0.051455 
0.997771 0.898226 0.051880 
0.996672 0.948245 0.052368 
0.995613 0.043078 -0.000769 
0.999384 0.094191 -0.000808 
1.002287 0.146049 -0.000784 
1.003683 0.198533 -0.000776 
1.003638 0.250613 -0.000680 
1.001960 0.301997 -0.000608 
0.999218 0.352866 -0.000218 
0.996348 0.402750 0.000038 
0.994001 0.451474 0.000413 
0.992933 0.499509 0.000644 
0.993181 0.547496 0.000779 
0.994720 0.596146 0.000812 
0.996783 0.645475 0.000831 
0.998924 0.695582 0.000901 
1.000222 0.746273 0.001025 
1.000437 0.797251 0.001232 
0.999823 0.848144 0.001561 
0.998753 0.898461 0.001863 
0.997942 0.948514 0.002341 
0.996792 0.998328 0.027719 
0.946299 0.997965 0.051248 
0.896685 0.998376 0.049728 
0.847012 0.999018 0.048781 
0.796846 0.999442 0.048484 
0.746545 0.999287 0.048920 
0.696198 0.998242 0.049872 
0.646192 0.996792 0.050920 
0.596606 0.995180 0.051670 
0.547582 0.994066 0.051724 
0.499052 0.993919 0.051286 
0.450631 0.994988 0.050560 
0.401684 0.997054 0.050019 
0.352076 0.999687 0.050088 
0.301332 1.002138 0.050572 
0.249935 1.003705 0.051321 
0.197927 1.003819 0.051733 
0.145132 1.002710 0.051448 
0.093179 0.999737 0.050544 
0.041805 0.996344 0.049219 
0.947535 0.998149 0.001171 
0.897793 0.998369 -0.000347 
0.847396 0.998974 -0.001232 
0.796797 0.999439 -0.001378 
0.746037 0.999312 -0.001006 
0.695622 0.998374 -0.000200 
0.645608 0.996924 0.000800 
0.596442 0.995381 0.001303 
0.547817 0.994268 0.001290 
0.499546 0.994203 0.000777 
0.451002 0.995245 0.000175 
0.401730 0.997560 -0.000121 
0.351706 1.000167 0.000102 
0.300894 1.002680 0.000925 
0.249478 1.004271 0.001775 
0.197492 1.004379 0.002375 
0.145538 1.002899 0.001917 
0.094181 1.000037 0.000948 
0.043100 0.996328 -0.000723 
0.016619 0.994396 0.017331 
0.011640 0.994086 0.033713 
0.972663 0.998177 0.020892 
0.976743 0.998133 0.037568 
0.481481 0.994300 0.025776 
0.771547 0.999410 0.023654 
0.670902 0.997614 0.025342 
0.524107 0.993937 0.026330 
0.721088 0.998898 0.024334 
0.621175 0.995993 0.026284 
0.067892 0.998199 0.025010 
0.223740 1.004199 0.026817 
0.572229 0.994585 0.026570 
0.171470 1.003524 0.026987 
0.119411 1.001438 0.026296 
0.872261 0.998658 0.024101 
0.822141 0.999269 0.023554 
0.376867 0.998593 0.024949 
0.915439 0.998184 0.025249 
0.275401 1.003416 0.026143 
0.326592 1.001288 0.025364 
0.426395 0.996095 0.025116 
0.504221 0.503519 0.050213 
0.295066 0.297628 0.049265 
0.710555 0.707715 0.050570 
0.709990 0.291327 0.050318 
0.292070 0.709891 0.049024 
0.502537 0.778996 0.050208 
0.781398 0.498961 0.049367 
0.500843 0.221057 0.049902 
0.221443 0.503633 0.050732 
0.168969 0.170649 0.049557 
0.833640 0.172172 0.050699 
0.830734 0.831061 0.049039 
0.171568 0.832834 0.050514 
0.567699 0.643059 0.051295 
0.440337 0.361872 0.049370 
0.644183 0.439663 0.049896 
0.354934 0.568990 0.050048 
0.640572 0.845150 0.051091 
0.361362 0.152129 0.050295 
0.149327 0.361130 0.049283 
0.845884 0.359866 0.050079 
0.844475 0.641919 0.049793 
0.641217 0.153023 0.049679 
0.358318 0.845774 0.048152 
0.152655 0.634534 0.051443 
0.680339 0.584880 0.050500 
0.563112 0.331439 0.049735 
0.441708 0.669710 0.049656 
0.323674 0.423728 0.049577 
0.533128 0.876849 0.050923 
0.464800 0.112724 0.050385 
0.876319 0.465163 0.050033 
0.113571 0.464990 0.049366 
0.743290 0.896398 0.049138 
0.108621 0.257328 0.050294 
0.257244 0.097441 0.049659 
0.900427 0.255949 0.050055 
0.889975 0.736133 0.049785 
0.737103 0.113773 0.050321 
0.263190 0.893029 0.049900 
0.113771 0.738855 0.050765 
0.604154 0.740475 0.051521 
0.402024 0.260509 0.049540 
0.744279 0.405188 0.049611 
0.250853 0.598279 0.051126 
0.601777 0.524331 0.050561 
0.401370 0.478392 0.049646 
0.612597 0.253305 0.050102 
0.388810 0.745233 0.048210 
0.096280 0.093090 0.049663 
0.902503 0.095222 0.050330 
0.903465 0.900795 0.049745 
0.098265 0.905895 0.050206 
0.436031 0.898819 0.049458 
0.896868 0.562255 0.050274 
0.562615 0.092709 0.049118 
0.091321 0.562450 0.050230 
0.260439 0.203531 0.049500 
0.743764 0.798543 0.049712 
0.799477 0.259166 0.050641 
0.211317 0.746615 0.049986 
0.197573 0.280534 0.049360 
0.799618 0.717779 0.049687 
0.715541 0.207979 0.050501 
0.286553 0.794628 0.048499 
0.506037 0.414686 0.049745 
0.501242 0.591130 0.050505 
0.241361 0.368047 0.049381 
0.759742 0.637065 0.049971 
0.690192 0.503187 0.049875 
0.647247 0.346000 0.049925 
0.309241 0.507216 0.050316 
0.355440 0.655456 0.049235 
0.081005 0.181556 0.051159 
0.175326 0.083724 0.048871 
0.815665 0.918805 0.048680 
0.923458 0.182216 0.049707 
0.917317 0.819246 0.049916 
0.820663 0.086679 0.050848 
0.084708 0.817418 0.050007 
0.184888 0.918209 0.051034 
0.655386 0.658533 0.051132 
0.351469 0.347712 0.049200 
0.516954 0.696987 0.050733 
0.489007 0.303877 0.049621 
0.608617 0.913078 0.051381 
0.388026 0.079081 0.050998 
0.073393 0.393025 0.048751 
0.914149 0.389898 0.050093 
0.922524 0.658617 0.050424 
0.660126 0.075387 0.048881 
0.339821 0.925335 0.049138 
0.074414 0.661675 0.050831 
0.431055 0.818943 0.048787 
0.817436 0.566819 0.049590 
0.568534 0.175082 0.049779 
0.175938 0.566539 0.051359 
0.187354 0.432656 0.049840 
0.574698 0.815684 0.051230 
0.427704 0.176346 0.050232 
0.818303 0.426793 0.049693 
0.568993 0.460536 0.050079 
0.438789 0.545057 0.049960 
0.774662 0.331502 0.050288 
0.226014 0.668532 0.050687 
0.670012 0.781800 0.050950 
0.335602 0.219051 0.049670 
0.675395 0.928370 0.050302 
0.067109 0.315775 0.049900 
0.320478 0.067620 0.050699 
0.931536 0.323014 0.049791 
0.745005 0.561985 0.049752 
0.449206 0.735372 0.049291 
0.553484 0.262260 0.049864 
0.617778 0.598237 0.051070 
0.389467 0.409359 0.049485 
0.257945 0.445557 0.049935 
0.588123 0.394650 0.049799 
0.417179 0.608861 0.049830 
0.454691 0.431386 0.049675 
0.552760 0.575554 0.050807 
0.483795 0.928814 0.050505 
0.927168 0.514237 0.050615 
0.514682 0.059483 0.049722 
0.057849 0.514376 0.048989 
0.500230 0.834318 0.050230 
0.832779 0.507401 0.049595 
0.500305 0.147877 0.050041 
0.148060 0.500961 0.050259 
0.697663 0.842842 0.050204 
0.304604 0.156687 0.049897 
0.844071 0.302973 0.050301 
0.151272 0.702417 0.050988 
0.161016 0.231563 0.049760 
0.843072 0.773486 0.049345 
0.774532 0.161185 0.050718 
0.228302 0.845059 0.050002 
0.670647 0.238358 0.050350 
0.330748 0.761966 0.048015 
0.697392 0.356321 0.049944 
0.303805 0.644959 0.049887 
0.934408 0.604406 0.050724 
0.606526 0.057865 0.048335 
0.393679 0.937025 0.049313 
0.056655 0.606742 0.050115 
0.700368 0.434678 0.049644 
0.304092 0.560105 0.050557 
0.052229 0.051853 0.049670 
0.942525 0.051320 0.049944 
0.942761 0.943488 0.050894 
0.050555 0.943067 0.049356 
0.770159 0.945683 0.048699 
0.056312 0.229939 0.051307 
0.224159 0.053851 0.049190 
0.945410 0.769143 0.050235 
0.770633 0.059210 0.050600 
0.228340 0.949249 0.051010 
0.951333 0.226755 0.049373 
0.059319 0.771516 0.050100 
0.220546 0.160692 0.049332 
0.775615 0.847987 0.048986 
0.850958 0.225895 0.050544 
0.159057 0.775954 0.050488 
[...]
POINT_DATA 1221
SCALARS u float 1
LOOKUP_TABLE default
0.055035
0.159097
0.058897
0.154573
0.049669
0.149605
0.074460
0.168464
0.044188
0.041872
0.048296
0.054509
0.056277
0.061907
0.075861
0.100029
0.116228
0.115913
0.098635
0.068220
0.040895
0.040759
0.052918
0.057825
0.070148
0.089324
0.125870
0.048492
0.043269
0.044495
0.053600
0.061537
0.071878
0.087352
0.099972
0.107002
0.104563
0.089597
0.062079
0.041342
0.043943
0.062521
0.072029
0.075330
0.088326
0.117713
0.051042
0.160295
0.053914
0.054022
0.052799
0.054994
0.060687
0.068919
0.078196
0.086164
0.089070
0.085733
0.076419
0.059072
0.039750
0.037760
0.055201
0.066130
0.075009
0.086229
0.113192
0.056648
0.054185
0.050341
0.048634
0.051936
0.059276
0.076987
0.092533
0.097518
0.088410
0.071506
0.050359
0.043395
0.048408
0.060840
0.065497
0.074158
0.091653
0.122537
0.153562
0.113142
0.084205
0.075876
0.068010
0.063078
0.041112
0.040570
0.064855
0.093679
0.110404
0.111705
0.099276
0.082801
0.067238
0.055853
0.045140
0.039976
0.049462
0.064422
0.119281
0.085463
0.067121
0.058539
0.054369
0.041499
0.043170
0.066248
0.089723
0.103076
0.105872
0.095449
0.081355
0.067172
0.056103
0.044107
0.035238
0.039399
0.050041
0.065583
0.063819
0.053641
0.048888
0.051348
0.053460
0.060724
0.073373
0.088789
0.096158
0.091113
0.073650
0.049179
0.030449
0.037429
0.057004
0.067797
0.083421
0.099231
0.130527
0.047780
0.040083
0.044313
0.051184
0.060082
0.067740
0.078563
0.086574
0.090831
0.085009
0.070464
0.043377
0.024881
0.043073
0.067452
0.080824
0.081965
0.085440
0.113752
0.139676
0.148008
0.058904
0.064998
0.083400
0.054376
0.068890
0.093013
0.059679
0.082410
0.106262
0.068771
0.091564
0.077804
0.085716
0.046078
0.047627
0.033879
0.049641
0.052527
0.030145
0.060113
0.079695
0.056619
0.057303
0.016316
0.023725
0.039065
0.047299
0.037266
0.044072
0.012660
0.053632
0.015206
0.052548
0.071061
0.068697
0.039059
0.036217
0.030554
0.025393
0.031558
0.013614
0.028394
0.010639
0.028331
0.027010
0.058099
0.036525
0.035823
0.056699
0.076497
0.075124
0.086796
0.092712
0.019530
0.017135
0.021385
0.055921
0.014302
0.049658
0.049270
0.052226
0.051274
0.044873
0.017090
0.021304
0.070206
0.069220
0.015324
0.029349
0.031599
0.007987
0.034538
0.008589
0.063383
0.091083
0.062814
0.081818
0.031960
0.033719
0.037121
0.037047
0.031609
0.032249
0.024759
0.033130
0.070067
0.070984
0.040184
0.039572
0.036934
0.021152
0.034482
0.025992
0.032782
0.030935
0.034226
0.062529
0.025313
0.057864
0.056066
0.060129
0.069420
0.067874
0.044149
0.044764
0.066739
0.062987
0.078159
0.043084
0.045053
0.017815
0.013400
0.012511
0.044829
0.053604
0.041139
0.056414
0.047469
0.044527
0.041147
0.048643
0.066852
0.065972
0.007970
0.013311
0.039155
0.034970
0.040323
0.037145
0.045124
0.018343
0.036320
0.026843
0.026947
0.073869
0.071241
0.034556
0.046518
0.045786
0.076306
0.078146
0.086647
0.110289
0.084904
0.109799
0.060832
0.075145
0.063230
0.079720
0.014599
0.010301
0.025393
0.031619
0.021504
0.019191
0.050609
0.049865
0.011292
0.030779
0.011249
0.014321
0.082139
0.043740
0.039733
0.053122
0.020651
0.023165
0.045825
0.059948
0.056072
0.071450
0.042160
0.040312
0.041498
0.036421
0.065663
0.065566
0.070384
0.063176
0.014770
0.016993
0.053822
0.053110
0.091482
0.090428
0.086673
0.108787
0.010345
0.007092
0.021959
0.029021
0.039771
0.037297
0.060307
0.060512
0.063643
0.066186
0.062279
0.057692
0.058279
0.061555
0.057873
0.037633
0.044790
0.043210
0.044285
0.050039
0.035862
0.041202
0.054602
0.051192
0.054293
0.040067
0.030675
0.022332
0.025819
0.030958
0.058837
0.053403
0.055153
0.046424
0.046407
0.026295
0.029989
0.046172
0.045859
0.037963
0.030143
0.018851
0.041023
0.042980
0.041550
0.042064
0.016828
0.044039
0.018359
0.043184
0.034746
0.020116
0.059300
0.050546
0.025502
0.025462
0.047484
0.047321
0.013978
0.028986
0.032639
0.056030
0.029460
0.040052
0.032228
0.076352
0.075340
0.021323
0.022280
0.027264
0.026095
0.005216
0.029949
0.019749
0.025807
0.026172
0.007663
0.069298
0.106023
0.070429
0.090719
0.015574
0.055160
0.053576
0.077873
0.096880
0.076755
0.098333
0.036933
0.033427
0.029561
0.074912
0.074863
0.032256
0.042885
0.045007
0.045653
0.048693
0.020688
0.056879
0.054086
0.051680
0.052500
0.028979
0.072155
0.066124
0.067599
0.067573
0.024986
0.046441
0.042688
0.046794
0.019976
0.025257
0.043138
0.037957
0.018073
0.048775
0.047148
0.019846
0.022388
0.045899
0.047965
0.067439
0.047277
0.036699
0.065280
0.060067
0.069581
0.053429
0.050239
0.018306
0.032880
0.041443
0.079658
0.078698
0.033854
0.034045
0.044367
0.034863
0.071099
0.072999
0.031068
0.032598
0.034777
0.033161
0.073593
0.071752
0.068584
0.067755
0.018081
0.059857
0.024379
0.019354
0.040772
0.034395
0.026079
0.020302
0.011586
0.025643
0.062009
0.060138
0.059014
0.045675
0.055275
0.085537
0.097750
0.081104
0.065766
0.059795
0.078162
0.058557
0.076830
0.042495
0.054692
0.037332
0.052885
0.013183
0.026346
0.006253
0.011087
0.061634
0.035299
0.062270
0.061645
0.020278
0.058762
0.059304
0.040021
0.045038
0.042788
0.023577
0.034467
0.035337
0.033995
0.109517
0.090110
0.095678
0.118108
0.005133
0.018028
0.019464
0.027823
0.028997
0.043333
0.039719
0.048646
0.049368
0.051686
0.055185
0.048090
0.054693
0.064964
0.090149
0.028009
0.029247
0.075920
0.013730
0.020756
0.052417
0.052626
0.030860
0.061992
0.063080
0.047145
0.046063
0.062238
0.058646
0.069414
0.080004
0.076909
0.060261
0.058191
0.073861
0.077201
0.064591
0.033922
0.048663
0.044316
0.032342
0.056766
0.057334
0.061642
0.025603
0.041230
0.036004
0.034759
0.113987
0.084663
0.110926
0.085711
0.008486
0.030903
0.035629
0.020190
0.026592
0.011399
0.022470
0.033315
0.073312
0.075296
0.033840
0.038694
0.035076
0.039429
0.013148
0.015206
0.012614
0.019606
0.037694
0.038169
0.025314
0.025273
0.066328
0.026625
0.006112
0.011184
0.045124
0.041619
0.018047
0.020722
0.036167
0.058979
0.074178
0.030987
0.029818
0.019493
0.047936
0.103614
0.064781
0.119827
0.032912
0.032082
0.024338
0.061657
0.060478
0.011175
0.014240
0.045263
0.046290
0.060925
0.048378
0.011629
0.048482
0.031533
0.035573
0.026895
0.045733
0.017726
0.028770
0.077668
0.076054
0.027439
0.067249
0.089615
0.101164
0.085189
0.109083
0.060599
0.066171
0.136484
0.136971
0.109176
0.052448
0.049527
0.038846
0.039157
0.051328
0.061936
0.065222
0.077468
0.096099
0.038778
0.100743
0.078994
0.051981
0.104727
0.089854
0.060906
0.074300
0.137354
0.137198
0.053532
0.051801
0.083038
0.059035
0.081019
0.072498
0.103340
0.063722
0.051446
0.053587
0.052196
0.055470
0.084793
0.092303
0.071434
0.092128
0.046781
0.038574
0.050017
0.064390
0.082355
0.055951
0.054610
0.016393
0.018367
0.041588
0.047368
0.039558
0.047301
0.006175
0.050742
0.018872
0.054270
0.070308
0.067775
0.036787
0.035024
0.027888
0.030222
0.028568
0.013790
0.027809
0.006916
0.027948
0.029061
0.056802
0.055684
0.036434
0.038836
0.073236
0.073440
0.081644
0.084972
0.023981
0.018977
0.017743
0.051840
0.018534
0.050744
0.054276
0.055647
0.045454
0.043040
0.013200
0.022244
0.070606
0.068631
0.017781
0.035843
0.033155
0.007386
0.031666
0.009070
0.059689
0.084910
0.059401
0.072050
0.032452
0.030145
0.036646
0.033589
0.030070
0.033124
0.026756
0.032565
0.072083
0.073240
0.038814
0.040823
0.037302
0.036994
0.021338
0.023628
0.029033
0.030109
0.033817
0.054879
0.027159
0.057034
0.062159
0.063036
0.066842
0.049268
0.066697
0.045556
0.062943
0.066700
0.073516
0.043105
0.045032
0.019496
0.016212
0.014009
0.043936
0.053807
0.037189
0.051640
0.048867
0.043938
0.043928
0.046446
0.067809
0.068101
0.034235
0.006330
0.012184
0.035542
0.044050
0.041144
0.043358
0.015534
0.039121
0.035245
0.028349
0.073295
0.072648
0.038848
0.047046
0.048184
0.078440
0.080187
0.082446
0.104095
0.084389
0.099393
0.059372
0.071493
0.059143
0.074407
0.008443
0.013119
0.022446
0.031289
0.018957
0.023505
0.050515
0.051749
0.012478
0.032026
0.008533
0.005894
0.075896
0.038774
0.033927
0.044707
0.031256
0.033695
0.047473
0.065933
0.043245
0.059746
0.042984
0.043316
0.036748
0.038117
0.065783
0.075783
0.062281
0.071931
0.012972
0.021090
0.053401
0.054512
0.087788
0.086769
0.092103
0.099481
0.007060
0.011621
0.025644
0.032513
0.057297
0.038610
0.060437
0.063095
0.058656
0.041322
0.057538
0.056895
0.056891
0.062967
0.054530
0.034494
0.043598
0.040434
0.041129
0.048976
0.030911
0.045333
0.051513
0.055119
0.054102
0.032813
0.023349
0.032192
0.018131
0.016317
0.055338
0.057513
0.052726
0.045749
0.044419
0.027098
0.027104
0.044711
0.045267
0.032907
0.032470
0.018831
0.041752
0.048943
0.048194
0.049870
0.016866
0.040765
0.019231
0.046930
0.036297
0.017462
0.051367
0.049364
0.025474
0.028906
0.046997
0.045492
0.015061
0.026819
0.031678
0.053608
0.025368
0.035802
0.035827
0.078497
0.077538
0.025117
0.028074
0.008745
0.030291
0.013228
0.027623
0.030223
0.005925
0.064446
0.099327
0.066908
0.080819
0.019900
0.053138
0.057252
0.074008
0.091097
0.074315
0.088535
0.039628
0.038748
0.028827
0.077183
0.077119
0.032566
0.045519
0.048920
0.042327
0.042794
0.043016
0.021511
0.053055
0.055629
0.054263
0.052929
0.065855
0.028256
0.028578
0.066996
0.071121
0.069451
0.026527
0.045595
0.043120
0.047160
0.017400
0.024278
0.037951
0.044228
0.014590
0.046755
0.045404
0.019751
0.015685
0.043412
0.043501
0.059353
0.044211
0.035098
0.063358
0.066140
0.070749
0.020826
0.059475
0.065006
0.031744
0.037304
0.043353
0.037142
0.081822
0.080939
0.034436
0.031703
0.036634
0.029222
0.045654
0.038227
0.073014
0.075043
0.038671
0.039420
0.034127
0.035157
0.072305
0.067964
0.066824
0.020717
0.059309
0.033386
0.024403
0.036934
0.038710
0.024376
0.022605
0.012438
0.027227
0.057979
0.061722
0.056529
0.057060
0.065754
0.081413
0.093068
0.087046
0.064487
0.057081
0.073053
0.055335
0.068566
0.041248
0.054234
0.033654
0.048278
0.016493
0.021606
0.003001
0.012793
0.062861
0.063988
0.023983
0.057795
0.062548
0.043083
0.044501
0.046715
0.023773
0.103039
0.094197
0.090315
0.108935
0.021142
0.004536
0.019151
0.020549
0.033051
0.034954
0.043102
0.040922
0.048839
0.051758
0.041606
0.059292
0.036711
0.052263
0.053180
0.081290
0.057823
0.029636
0.079399
0.060670
0.014063
0.015108
0.044247
0.052286
0.051545
0.035633
0.046023
0.043763
0.058767
0.060759
0.052127
0.076375
0.073669
0.051991
0.057680
0.075762
0.076858
0.065405
0.063789
0.045594
0.043360
0.058903
0.061262
0.057769
0.023940
0.038835
0.034459
0.071519
0.038961
0.107439
0.083251
0.100407
0.081593
0.009267
0.033933
0.038751
0.027323
0.019702
0.021286
0.010866
0.024692
0.075246
0.076956
0.034992
0.038114
0.034511
0.038089
0.017605
0.014484
0.009506
0.021968
0.037282
0.040664
0.026677
0.032863
0.067233
0.065727
0.004162
0.012928
0.041396
0.038768
0.021876
0.020058
0.032369
0.059116
0.072423
0.029776
0.026642
0.013509
0.051437
0.112484
0.049367
0.106176
0.033877
0.039158
0.060082
0.060073
0.010589
0.007024
0.020377
0.024925
0.048973
0.046738
0.056080
0.049784
0.013392
0.052220
0.030137
0.034915
0.025954
0.045891
0.018634
0.027163
0.079329
0.078175
0.031085
0.084933
0.095147
0.088184
0.100444
0.140235
0.148042
0.048844
0.047727
0.106259
0.062583
0.061882
0.070421
0.077967
0.104888
0.056566
0.050311
0.043191
0.042603
0.073818
0.114367
0.091809
0.107031
0.051210
0.080671
0.050440
0.037034
