# vtk DataFile Version 2.0
Unstructured Grid Example
ASCII
DATASET UNSTRUCTURED_GRID
POINTS 1221 float
-0.000034 -0.000037 0.002501 
0.999966 -0.000038 0.000956 
0.999967 0.999962 -0.001491 
-0.000033 0.999963 0.000054 
0.000043 0.000085 0.052501 
1.000043 0.000084 0.050956 
1.000044 1.000084 0.048509 
0.000044 1.000085 0.050054 
0.000043 0.050085 0.052379 
0.000043 0.100085 0.052256 
0.000043 0.150085 0.052134 
0.000043 0.200085 0.052012 
0.000043 0.250085 0.051889 
0.000043 0.300085 0.051767 
0.000043 0.350085 0.051645 
0.000043 0.400085 0.051522 
0.000043 0.450085 0.051400 
0.000044 0.500085 0.051278 
0.000044 0.550085 0.051155 
0.000044 0.600085 0.051033 
0.000044 0.650085 0.050911 
0.000044 0.700085 0.050788 
0.000044 0.750085 0.050666 
0.000044 0.800085 0.050544 
0.000044 0.850085 0.050421 
0.000044 0.900085 0.050299 
0.000044 0.950085 0.050177 
-0.000034 0.049963 0.002379 
-0.000034 0.099963 0.002256 
-0.000034 0.149963 0.002134 
-0.000034 0.199963 0.002012 
-0.000034 0.249963 0.001889 
-0.000034 0.299963 0.001767 
-0.000034 0.349963 0.001645 
-0.000034 0.399963 0.001522 
-0.000034 0.449963 0.001400 
-0.000034 0.499963 0.001278 
-0.000034 0.549963 0.001155 
-0.000034 0.599963 0.001033 
-0.000034 0.649963 0.000911 
-0.000034 0.699963 0.000788 
-0.000034 0.749963 0.000666 
-0.000033 0.799963 0.000544 
-0.000033 0.849963 0.000421 
-0.000033 0.899963 0.000299 
-0.000033 0.949963 0.000177 
0.000004 0.000024 0.027501 
0.000005 1.000024 0.025054 
0.050043 0.000085 0.052424 
0.100043 0.000085 0.052346 
0.150043 0.000085 0.052269 
0.200043 0.000085 0.052192 
0.250043 0.000085 0.052115 
0.300043 0.000085 0.052037 
0.350043 0.000085 0.051960 
0.400043 0.000085 0.051883 
0.450043 0.000085 0.051806 
0.500043 0.000085 0.051728 
0.550043 0.000085 0.051651 
0.600043 0.000085 0.051574 
0.650043 0.000085 0.051496 
0.700043 0.000084 0.051419 
0.750043 0.000084 0.051342 
0.800043 0.000084 0.051265 
0.850043 0.000084 0.051187 
0.900043 0.000084 0.051110 
0.950043 0.000084 0.051033 
0.049966 -0.000037 0.002424 
0.099966 -0.000037 0.002346 
0.149966 -0.000037 0.002269 
0.199966 -0.000037 0.002192 
0.249966 -0.000037 0.002115 
0.299966 -0.000038 0.002037 
0.349966 -0.000038 0.001960 
0.399966 -0.000038 0.001883 
0.449966 -0.000038 0.001806 
0.499966 -0.000038 0.001728 
0.549966 -0.000038 0.001651 
0.599966 -0.000038 0.001574 
0.649966 -0.000038 0.001496 
0.699966 -0.000038 0.001419 
0.749966 -0.000038 0.001342 
0.799966 -0.000038 0.001265 
0.849966 -0.000038 0.001187 
0.899966 -0.000038 0.001110 
0.949966 -0.000038 0.001033 
1.000004 0.000023 0.025956 
1.000043 0.050084 0.050833 
1.000043 0.100084 0.050711 
1.000043 0.150084 0.050589 
1.000043 0.200084 0.050466 
1.000043 0.250084 0.050344 
1.000043 0.300084 0.050222 
1.000043 0.350084 0.050099 
1.000043 0.400084 0.049977 
1.000043 0.450084 0.049855 
1.000044 0.500084 0.049732 
1.000044 0.550084 0.049610 
1.000044 0.600084 0.049488 
1.000044 0.650084 0.049365 
1.000044 0.700084 0.049243 
1.000044 0.750084 0.049121 
1.000044 0.800084 0.048998 
1.000044 0.850084 0.048876 
1.000044 0.900084 0.048753 
1.000044 0.950084 0.048631 
0.999966 0.049962 0.000833 
0.999966 0.099962 0.000711 
0.999966 0.149962 0.000589 
0.999966 0.199962 0.000466 
0.999966 0.249962 0.000344 
0.999966 0.299962 0.000222 
0.999966 0.349962 0.000099 
0.999966 0.399962 -0.000023 
0.999966 0.449962 -0.000145 
0.999966 0.499962 -0.000268 
0.999966 0.549962 -0.000390 
0.999966 0.599962 -0.000512 
0.999966 0.649962 -0.000635 
0.999966 0.699962 -0.000757 
0.999966 0.749962 -0.000879 
0.999967 0.799962 -0.001002 
0.999967 0.849962 -0.001124 
0.999967 0.899962 -0.001247 
0.999967 0.949962 -0.001369 
1.000005 1.000023 0.023509 
0.950044 1.000084 0.048586 
0.900044 1.000084 0.048663 
0.850044 1.000084 0.048741 
0.800044 1.000084 0.048818 
0.750044 1.000084 0.048895 
0.700044 1.000084 0.048972 
0.650044 1.000085 0.049050 
0.600044 1.000085 0.049127 
0.550044 1.000085 0.049204 
0.500044 1.000085 0.049281 
0.450044 1.000085 0.049359 
0.400044 1.000085 0.049436 
0.350044 1.000085 0.049513 
0.300044 1.000085 0.049591 
0.250044 1.000085 0.049668 
0.200044 1.000085 0.049745 
0.150044 1.000085 0.049822 
0.100044 1.000085 0.049900 
0.050044 1.000085 0.049977 
0.949967 0.999962 -0.001414 
0.899967 0.999962 -0.001337 
0.849967 0.999962 -0.001259 
0.799967 0.999962 -0.001182 
0.749967 0.999962 -0.001105 
0.699967 0.999962 -0.001028 
0.649967 0.999962 -0.000950 
0.599967 0.999962 -0.000873 
0.549967 0.999962 -0.000796 
0.499967 0.999962 -0.000719 
0.449967 0.999962 -0.000641 
0.399967 0.999962 -0.000564 
0.349967 0.999962 -0.000487 
0.299967 0.999962 -0.000409 
0.249967 0.999963 -0.000332 
0.199967 0.999963 -0.000255 
0.149967 0.999963 -0.000178 
0.099967 0.999963 -0.000100 
0.049967 0.999963 -0.000023 
0.024301 1.000009 0.018905 
0.019813 1.000049 0.035440 
0.975690 1.000008 0.017435 
0.980230 1.000049 0.033956 
0.481672 1.000023 0.024310 
0.775005 1.000023 0.023857 
0.675005 1.000023 0.024011 
0.525746 1.000023 0.024242 
0.725005 1.000023 0.023934 
0.625005 1.000023 0.024088 
0.075005 1.000024 0.024938 
0.225005 1.000024 0.024706 
0.575088 1.000023 0.024165 
0.175005 1.000024 0.024784 
0.125005 1.000024 0.024861 
0.875005 1.000023 0.023702 
0.825005 1.000023 0.023779 
0.375005 1.000024 0.024475 
0.918339 1.000023 0.023635 
0.275005 1.000024 0.024629 
0.325005 1.000024 0.024552 
0.425005 1.000024 0.024397 
0.500044 0.500085 0.050505 
0.292360 0.295035 0.051328 
0.707710 0.705160 0.049682 
0.709118 0.290839 0.050694 
0.290969 0.709330 0.050316 
0.501406 0.781498 0.049814 
0.784497 0.498089 0.050070 
0.499543 0.223332 0.051183 
0.224302 0.502830 0.050924 
0.168259 0.170752 0.051823 
0.831036 0.169766 0.050802 
0.830362 0.831077 0.049185 
0.169052 0.830403 0.050208 
0.563689 0.640705 0.050062 
0.436398 0.359464 0.050947 
0.642484 0.437693 0.050437 
0.353419 0.567121 0.050567 
0.639863 0.846874 0.049440 
0.360810 0.153835 0.051567 
0.151346 0.360642 0.051385 
0.846808 0.360268 0.050311 
0.846363 0.641373 0.049624 
0.641568 0.153692 0.051134 
0.358519 0.846478 0.049876 
0.153833 0.634945 0.050710 
0.678320 0.581563 0.050030 
0.560725 0.330906 0.050825 
0.439362 0.669263 0.050185 
0.321791 0.420433 0.050975 
0.533806 0.882092 0.049518 
0.465275 0.117960 0.051494 
0.882332 0.465733 0.049998 
0.119951 0.465699 0.051176 
0.744354 0.896662 0.049157 
0.107987 0.258336 0.051702 
0.258675 0.097891 0.051862 
0.896620 0.255774 0.050490 
0.889681 0.737119 0.049323 
0.737078 0.110447 0.051092 
0.263009 0.889722 0.049918 
0.110309 0.738600 0.050524 
0.601035 0.740109 0.049762 
0.399052 0.260060 0.051248 
0.745286 0.404714 0.050359 
0.251719 0.597898 0.050649 
0.598430 0.521001 0.050302 
0.398074 0.475080 0.050724 
0.611813 0.254040 0.050934 
0.388139 0.745940 0.050076 
0.097642 0.094878 0.052118 
0.902444 0.094877 0.050874 
0.905251 0.902485 0.048894 
0.098609 0.905512 0.050133 
0.436886 0.903167 0.049616 
0.903126 0.563242 0.049727 
0.563201 0.097002 0.051394 
0.096961 0.563243 0.050973 
0.258714 0.202395 0.051606 
0.741884 0.797351 0.049404 
0.797250 0.258251 0.050637 
0.209082 0.745541 0.050354 
0.196240 0.279053 0.051515 
0.798236 0.716183 0.049515 
0.714685 0.206700 0.050891 
0.285402 0.793469 0.050119 
0.502118 0.412011 0.050717 
0.497291 0.588425 0.050293 
0.240883 0.365479 0.051235 
0.759199 0.634483 0.049776 
0.689601 0.500807 0.050210 
0.646007 0.345394 0.050658 
0.308815 0.504990 0.050788 
0.354076 0.654734 0.050352 
0.080289 0.183429 0.051928 
0.177091 0.084373 0.052021 
0.817635 0.919242 0.048989 
0.919201 0.182493 0.050634 
0.917253 0.821072 0.049075 
0.821031 0.082875 0.051030 
0.080886 0.817676 0.050376 
0.185362 0.914298 0.049978 
0.651938 0.655539 0.049890 
0.348134 0.344652 0.051120 
0.514074 0.696625 0.050002 
0.486013 0.303545 0.051007 
0.610246 0.917260 0.049314 
0.389549 0.083128 0.051696 
0.078434 0.394708 0.051414 
0.917164 0.390007 0.050130 
0.925007 0.660581 0.049455 
0.660540 0.075122 0.051297 
0.339787 0.925095 0.049713 
0.074493 0.661527 0.050767 
0.431244 0.821870 0.049824 
0.821034 0.565965 0.049848 
0.568627 0.177996 0.051187 
0.179610 0.567001 0.050836 
0.190463 0.431596 0.051151 
0.573744 0.818402 0.049612 
0.426726 0.179070 0.051404 
0.821686 0.427004 0.050187 
0.565514 0.457643 0.050508 
0.435369 0.542188 0.050502 
0.774323 0.331315 0.050494 
0.225517 0.668335 0.050517 
0.667603 0.781265 0.049558 
0.333348 0.218475 0.051451 
0.677383 0.930422 0.049178 
0.068592 0.317978 0.051617 
0.322763 0.069751 0.051832 
0.930381 0.322745 0.050274 
0.745746 0.559675 0.049979 
0.447881 0.736483 0.050007 
0.552011 0.263412 0.051004 
0.614167 0.594933 0.050096 
0.386027 0.406013 0.050911 
0.258639 0.443349 0.051017 
0.585483 0.392983 0.050635 
0.414604 0.607186 0.050375 
0.450669 0.428140 0.050757 
0.548663 0.572279 0.050253 
0.484824 0.934774 0.049465 
0.934733 0.515304 0.049796 
0.515263 0.065395 0.051545 
0.065354 0.515305 0.051139 
0.500227 0.838594 0.049676 
0.837991 0.507373 0.049965 
0.500383 0.152324 0.051355 
0.153593 0.501300 0.051037 
0.696720 0.842954 0.049362 
0.303954 0.156894 0.051648 
0.842394 0.302909 0.050458 
0.149389 0.702233 0.050552 
0.159638 0.231294 0.051689 
0.842002 0.773276 0.049308 
0.773235 0.158126 0.050919 
0.226852 0.842043 0.050090 
0.670017 0.238264 0.050883 
0.330055 0.761884 0.050127 
0.696944 0.355808 0.050554 
0.303143 0.644362 0.050456 
0.939661 0.606602 0.049565 
0.606561 0.060467 0.051416 
0.393833 0.939762 0.049593 
0.060361 0.606708 0.050923 
0.700299 0.433387 0.050359 
0.303931 0.558706 0.050664 
0.054464 0.054194 0.052284 
0.945622 0.054193 0.050907 
0.945935 0.945664 0.048726 
0.054572 0.946001 0.050102 
0.772787 0.946072 0.048992 
0.055693 0.232388 0.051847 
0.226919 0.054340 0.052018 
0.945213 0.771717 0.049152 
0.771676 0.054916 0.051174 
0.229011 0.944968 0.049835 
0.946571 0.227172 0.050483 
0.055006 0.771722 0.050528 
0.220031 0.160247 0.051769 
0.775344 0.847574 0.049229 
0.847527 0.224785 0.050641 
0.155686 0.774802 0.050365 
0.553237 0.947887 0.049327 
[...]
POINT_DATA 1221
SCALARS u float 1
LOOKUP_TABLE default
0.132175
0.050564
0.078839
0.003895
0.132244
0.050738
0.078953
0.005813
0.125784
0.119326
0.112867
0.106410
0.099954
0.093498
0.087044
0.080592
0.074141
0.067693
0.061249
0.054810
0.048377
0.041953
0.035545
0.029161
0.022822
0.016581
0.010610
0.125712
0.119249
0.112786
0.106324
0.099862
0.093400
0.086938
0.080477
0.074017
0.067557
0.061098
0.054641
0.048185
0.041732
0.035283
0.028841
0.022412
0.016011
0.009694
0.132154
0.003141
0.128164
0.124084
0.120005
0.115926
0.111847
0.107768
0.103690
0.099612
0.095534
0.091457
0.087381
0.083305
0.079230
0.075156
0.071082
0.067010
0.062939
0.058870
0.054803
0.128093
0.124011
0.119929
0.115847
0.111766
0.107684
0.103603
0.099521
0.095440
0.091359
0.087278
0.083198
0.079117
0.075037
0.070957
0.066877
0.062798
0.058719
0.054641
0.050507
0.044310
0.037894
0.031498
0.025137
0.018847
0.012731
0.007248
0.005153
0.009174
0.015011
0.021215
0.027539
0.033916
0.040321
0.046742
0.053174
0.059612
0.066056
0.072503
0.044110
0.037660
0.031216
0.024782
0.018370
0.012013
0.005894
0.002958
0.008145
0.014405
0.020790
0.027213
0.033651
0.040098
0.046550
0.053004
0.059461
0.065920
0.072379
0.078804
0.074879
0.070807
0.066735
0.062664
0.058596
0.054530
0.050466
0.046405
0.042349
0.038299
0.034256
0.030224
0.026208
0.022216
0.018264
0.014385
0.010660
0.007327
0.005203
0.074759
0.070679
0.066599
0.062519
0.058441
0.054362
0.050285
0.046208
0.042133
0.038059
0.033987
0.029918
0.025854
0.021796
0.017751
0.013727
0.009752
0.005926
0.002911
0.001020
0.003105
0.076810
0.077228
0.036491
0.060434
0.052271
0.040088
0.056352
0.048189
0.003508
0.015563
0.044115
0.011500
0.007457
0.068598
0.064516
0.027788
0.072136
0.019635
0.023711
0.031867
0.027147
0.070326
0.017529
0.036999
0.017441
0.011033
0.006239
0.062699
0.049097
0.096478
0.042650
0.043380
0.012103
0.006015
0.050306
0.023651
0.030403
0.030000
0.082964
0.073351
0.017185
0.020492
0.060114
0.008266
0.037849
0.005268
0.043883
0.010982
0.051775
0.025961
0.079079
0.005014
0.062364
0.044827
0.090086
0.098512
0.026360
0.036135
0.057913
0.006658
0.028122
0.013568
0.066147
0.019633
0.034677
0.016712
0.038566
0.049615
0.006452
0.112036
0.046476
0.058650
0.008667
0.020895
0.015250
0.073803
0.051673
0.085019
0.031901
0.034045
0.019371
0.080219
0.026098
0.047347
0.008050
0.038226
0.016278
0.065436
0.012879
0.012188
0.035118
0.041961
0.019272
0.102016
0.106912
0.053683
0.033882
0.049147
0.054635
0.020477
0.005186
0.007693
0.059390
0.005034
0.053469
0.036604
0.089747
0.074898
0.008485
0.029207
0.068696
0.016001
0.040867
0.010584
0.009486
0.062919
0.044478
0.061019
0.021104
0.074336
0.011063
0.027285
0.026988
0.026577
0.027803
0.023893
0.076861
0.043731
0.085600
0.096919
0.015307
0.005137
0.005050
0.053269
0.007157
0.048411
0.053960
0.033921
0.020437
0.040325
0.014287
0.028725
0.011893
0.081787
0.060415
0.017828
0.005349
0.071785
0.055041
0.034084
0.087203
0.024727
0.029609
0.089366
0.036909
0.048837
0.006948
0.046916
0.008393
0.029679
0.024623
0.023532
0.074983
0.022078
0.049055
0.019601
0.035471
0.120813
0.048200
0.067526
0.007399
0.053491
0.097700
0.106726
0.045072
0.062252
0.010067
0.025985
0.028352
0.093613
0.041037
0.034263
0.019929
0.035916
0.005852
0.089039
0.070774
0.079839
0.027705
0.056337
0.005750
0.010096
0.062439
0.046257
0.008945
0.066858
0.006937
0.058349
0.063440
0.011105
0.013987
0.066596
0.110665
0.114847
0.037816
0.061270
0.055004
0.057700
0.016646
0.005313
0.017229
0.043974
0.042105
0.036376
0.042916
0.011860
0.012655
0.028452
0.081615
0.009362
0.078038
0.024910
0.039331
0.015102
0.071901
0.018914
0.021941
0.074821
0.018755
0.037642
0.067257
0.036012
0.014619
0.104697
0.047329
0.050151
0.007936
0.005974
0.056833
0.010636
0.035890
0.089174
0.036212
0.040619
0.013843
0.041336
0.013318
0.014936
0.021105
0.067593
0.043448
0.014186
0.022900
0.031522
0.027166
0.027176
0.073257
0.020308
0.052998
0.005078
0.097286
0.037277
0.090363
0.017654
0.027831
0.019034
0.080877
0.056351
0.044020
0.050076
0.006138
0.023285
0.008518
0.076392
0.057180
0.078756
0.006337
0.057493
0.030666
0.023703
0.066981
0.049668
0.092376
0.103017
0.018770
0.047626
0.036555
0.017849
0.014863
0.039716
0.042923
0.060076
0.043746
0.081716
0.096939
0.008742
0.057478
0.006373
0.006558
0.104145
0.052698
0.040824
0.013764
0.099868
0.022839
0.075867
0.032908
0.021324
0.106167
0.112968
0.031006
0.059677
0.053080
0.060302
0.023313
0.007678
0.006945
0.058375
0.036008
0.007633
0.049250
0.020351
0.034031
0.037951
0.016527
0.005325
0.060122
0.044250
0.010662
0.006047
0.006124
0.050149
0.056888
0.005081
0.052846
0.005032
0.053082
0.020205
0.034038
0.073051
0.042757
0.016238
0.069300
0.026138
0.010563
0.062831
0.048186
0.031116
0.023204
0.021606
0.068924
0.007873
0.039860
0.076400
0.093013
0.005096
0.016356
0.010474
0.069246
0.050091
0.012237
0.015175
0.064728
0.043589
0.084748
0.095474
0.025198
0.029203
0.022173
0.036088
0.033134
0.021219
0.042367
0.055322
0.005348
0.054732
0.034364
0.087481
0.012957
0.031044
0.023249
0.014259
0.010275
0.088144
0.035014
0.066980
0.023174
0.031843
0.031650
0.062515
0.010287
0.015746
0.117407
0.119780
0.042574
0.066448
0.052866
0.064160
0.012158
0.005101
0.068841
0.028067
0.081603
0.085676
0.035103
0.019283
0.028311
0.026980
0.034131
0.064826
0.012348
0.011551
0.064519
0.049029
0.075261
0.006514
0.032591
0.005315
0.005074
0.052941
0.046375
0.008818
0.032265
0.017767
0.018762
0.071605
0.048468
0.048499
0.087980
0.101732
0.012277
0.025388
0.013869
0.078375
0.015541
0.085826
0.062382
0.032716
0.051463
0.005481
0.008593
0.028479
0.025608
0.100117
0.080839
0.028338
0.042697
0.011842
0.030812
0.043308
0.083946
0.011379
0.023909
0.031240
0.085245
0.031250
0.050936
0.005706
0.047801
0.007703
0.046902
0.013969
0.092791
0.038776
0.028400
0.024385
0.041729
0.094865
0.021597
0.054849
0.029593
0.075750
0.047116
0.022962
0.126308
0.049409
0.073024
0.006572
0.058856
0.007302
0.037407
0.006228
0.057148
0.031164
0.023160
0.008813
0.046404
0.072681
0.039327
0.012447
0.092482
0.109642
0.050619
0.054042
0.005225
0.042068
0.012623
0.017262
0.037281
0.089953
0.007261
0.030300
0.006805
0.083405
0.064506
0.075653
0.076286
0.047352
0.048014
0.016568
0.014990
0.049720
0.056183
0.062645
0.069109
0.021438
0.027894
0.034353
0.039953
0.008565
0.010894
0.004625
0.002363
0.023880
0.030337
0.043258
0.036797
0.052479
0.052182
0.130164
0.130562
0.089831
0.109700
0.060711
0.064793
0.056630
0.068876
0.117865
0.121887
0.113782
0.125485
0.101534
0.093430
0.105617
0.097459
0.081122
0.077040
0.072958
0.085205
0.026861
0.070191
0.017013
0.036755
0.016907
0.010187
0.004594
0.063203
0.048559
0.096576
0.042436
0.043529
0.011275
0.004003
0.050659
0.023659
0.029966
0.029683
0.082854
0.073169
0.016656
0.020016
0.059967
0.007069
0.037606
0.003191
0.051599
0.043677
0.010117
0.025621
0.078876
0.002693
0.062268
0.044843
0.090137
0.098522
0.026043
0.036067
0.057750
0.005085
0.027696
0.013088
0.066234
0.020884
0.032949
0.015353
0.038329
0.049478
0.004760
0.111955
0.046308
0.058568
0.007487
0.020365
0.014706
0.073594
0.051391
0.084910
0.031615
0.033781
0.018824
0.080204
0.025750
0.047157
0.006735
0.037972
0.015674
0.065297
0.012160
0.011456
0.042169
0.035740
0.017914
0.101940
0.106820
0.053656
0.033585
0.048973
0.054511
0.020053
0.002889
0.006396
0.002704
0.059270
0.053260
0.036353
0.089646
0.074739
0.007358
0.028862
0.068564
0.015414
0.040655
0.009680
0.008488
0.062719
0.044098
0.060823
0.020667
0.073886
0.010179
0.026972
0.026710
0.023451
0.026238
0.027470
0.076741
0.043585
0.085457
0.096826
0.014713
0.002894
0.002690
0.053052
0.005852
0.048236
0.053746
0.033555
0.020083
0.040070
0.013638
0.028426
0.011093
0.081700
0.060293
0.017373
0.003271
0.070564
0.054947
0.033807
0.087099
0.024363
0.029237
0.089244
0.036667
0.048656
0.005460
0.046724
0.007184
0.028076
0.025546
0.023132
0.074824
0.021586
0.048847
0.011767
0.041437
0.120738
0.047962
0.067307
0.006074
0.053295
0.097583
0.106489
0.044912
0.062116
0.009129
0.025660
0.028031
0.093452
0.040689
0.033981
0.019543
0.035660
0.004049
0.088938
0.070640
0.079819
0.027373
0.056190
0.003853
0.013297
0.062253
0.046125
0.007533
0.066812
0.009489
0.066862
0.063309
0.010267
0.005963
0.057809
0.110583
0.114768
0.037549
0.061044
0.054831
0.057446
0.016121
0.003080
0.009982
0.043724
0.035912
0.042753
0.011012
0.023898
0.029745
0.028130
0.081393
0.008297
0.077931
0.024545
0.039103
0.014464
0.071724
0.018361
0.074690
0.021510
0.018347
0.037420
0.067124
0.035747
0.013976
0.104583
0.047147
0.049939
0.006670
0.004174
0.056634
0.018116
0.035525
0.089024
0.035896
0.040395
0.013164
0.041255
0.012470
0.014291
0.020672
0.067446
0.043224
0.013533
0.022445
0.031243
0.073165
0.019873
0.052826
0.002721
0.097142
0.037042
0.090263
0.017141
0.027484
0.018560
0.080754
0.056177
0.043764
0.049903
0.004386
0.022890
0.007403
0.076135
0.057025
0.078605
0.004685
0.057272
0.030370
0.023315
0.066712
0.049650
0.092310
0.102925
0.018200
0.040989
0.047295
0.036302
0.017356
0.014213
0.039483
0.059960
0.017951
0.035629
0.043564
0.081542
0.096845
0.007655
0.057316
0.004791
0.004981
0.104061
0.052562
0.040600
0.013078
0.099768
0.075785
0.022415
0.032635
0.020879
0.106067
0.112871
0.030712
0.059531
0.052904
0.060159
0.022923
0.006353
0.035745
0.002819
0.056600
0.014059
0.005612
0.049065
0.048076
0.019896
0.033765
0.037722
0.030206
0.015951
0.023421
0.003270
0.059945
0.044118
0.009682
0.004363
0.004334
0.056770
0.049932
0.002752
0.002720
0.052949
0.019723
0.033765
0.072928
0.042544
0.068876
0.015716
0.025781
0.009655
0.062688
0.048007
0.030826
0.022810
0.021202
0.074419
0.004697
0.039633
0.076267
0.092916
0.002851
0.015784
0.009589
0.068963
0.049885
0.011453
0.014574
0.064550
0.043320
0.084662
0.095388
0.025124
0.028617
0.032849
0.020796
0.042178
0.055166
0.003185
0.054544
0.034098
0.087363
0.012241
0.009364
0.088045
0.034754
0.066845
0.027701
0.022795
0.031522
0.031385
0.062372
0.009353
0.068343
0.117330
0.119704
0.042357
0.066299
0.052693
0.064005
0.011378
0.002735
0.068719
0.052013
0.081496
0.085548
0.011619
0.034215
0.019427
0.015243
0.026940
0.026687
0.033839
0.010740
0.063809
0.048701
0.064804
0.006881
0.032311
0.003213
0.006834
0.062680
0.046278
0.007681
0.021664
0.031983
0.070518
0.018261
0.048345
0.087867
0.101642
0.011518
0.025023
0.013203
0.052546
0.078184
0.014952
0.085723
0.062238
0.032436
0.051288
0.003406
0.007480
0.027966
0.028164
0.025211
0.100038
0.080726
0.042493
0.011273
0.030513
0.043101
0.083842
0.010519
0.030032
0.023596
0.085156
0.030984
0.050761
0.003751
0.047560
0.006446
0.007227
0.046709
0.092697
0.038573
0.028084
0.023854
0.041526
0.094769
0.021180
0.054791
0.029244
0.075631
0.046938
0.022499
0.126235
0.049221
0.072886
0.004969
0.058703
0.005939
0.004508
0.057000
0.030693
0.022943
0.017975
0.035806
0.007584
0.046207
0.072551
0.039108
0.011708
0.092383
0.109553
0.050452
0.053867
0.002970
0.041873
0.011837
0.016643
0.037036
0.089871
0.030002
0.005338
0.083272
0.064375
0.006065
0.006194
0.128970
0.129632
0.065147
0.096603
0.031977
0.025520
0.019067
0.012625
0.103066
0.109519
0.115898
0.121596
0.090139
0.070749
0.083675
0.077212
0.051360
0.057823
0.038437
0.044898
