# vtk DataFile Version 2.0
Unstructured Grid Example
ASCII
DATASET UNSTRUCTURED_GRID
POINTS 749 float
0.029403 0.008234 -0.060172 
0.515449 -0.012105 -0.011198 
0.213031 0.693004 -0.020084 
0.703120 0.697460 0.026522 
0.079974 0.741890 -0.015243 
0.083921 1.003881 -0.003463 
1.605378 1.020758 0.019313 
1.615552 0.691292 0.037827 
0.885728 0.542267 0.035043 
0.987975 0.684180 0.013886 
0.683473 0.464374 0.032952 
0.687541 0.517672 0.019564 
0.876860 0.593602 0.064541 
1.045328 0.700699 0.007679 
0.010587 0.001165 0.182655 
0.475833 0.001262 0.162578 
0.192160 0.726532 0.188452 
0.697475 0.683805 0.188926 
0.116930 0.680872 0.197911 
0.122461 0.987854 0.197716 
1.612757 0.983775 0.182188 
1.584541 0.704858 0.213456 
0.922848 0.487057 0.151157 
0.997148 0.699521 0.164677 
0.628758 0.547308 0.185887 
0.653982 0.590727 0.170019 
0.903090 0.548137 0.143872 
1.044326 0.684198 0.160945 
1.579639 0.845612 0.105866 
1.622806 0.855634 0.006890 
1.600475 0.893798 0.069600 
1.595752 0.809873 0.079502 
0.287850 0.867873 0.143452 
0.320127 0.845054 0.066382 
0.304064 0.899397 0.098578 
0.298161 0.804916 0.106909 
0.119105 0.007326 0.000381 
0.249373 0.010098 -0.030735 
0.396095 0.004652 0.005297 
0.033439 0.095957 -0.020125 
0.050982 0.181850 -0.013225 
0.080379 0.273955 -0.013060 
0.106875 0.358820 -0.012290 
0.137480 0.459252 -0.019288 
0.165100 0.554475 -0.010598 
0.202401 0.627443 -0.027391 
0.135024 0.727041 -0.026776 
0.077494 0.854281 0.032292 
0.203074 1.004326 -0.007650 
0.312965 1.003378 0.012836 
0.422532 0.990606 -0.015298 
0.521322 0.984353 0.029159 
0.624648 1.002023 0.010417 
0.748634 0.999906 0.011511 
0.847225 0.992864 -0.002787 
0.962199 1.033226 0.022736 
1.049649 1.006564 0.021506 
1.169605 0.977264 0.010318 
1.258623 1.012050 0.002247 
1.385907 0.997174 -0.032237 
1.500382 0.981003 0.008972 
1.619715 0.852970 -0.037585 
0.837274 0.688809 -0.009234 
0.643958 0.420468 -0.000588 
0.603657 0.335494 -0.005418 
0.579577 0.253692 0.001061 
0.546161 0.173486 -0.014893 
0.528724 0.082938 -0.017055 
0.784792 0.500923 0.033447 
0.984953 0.561113 0.031827 
0.951363 0.596965 0.028418 
0.763024 0.570247 0.038252 
0.680930 0.617689 0.018967 
1.136082 0.727352 0.007939 
1.214249 0.692384 -0.006729 
1.301044 0.690846 -0.025870 
1.391784 0.706698 -0.012734 
1.506927 0.709774 0.002272 
0.136452 -0.006017 0.199287 
0.260892 -0.013299 0.136082 
0.356657 -0.009590 0.174410 
0.034278 0.089449 0.180519 
0.057718 0.183817 0.170569 
0.069443 0.258685 0.166095 
0.083206 0.339819 0.166996 
0.115209 0.413752 0.156466 
0.151161 0.496113 0.185609 
0.154611 0.615679 0.190895 
0.161809 0.695165 0.182208 
0.117794 0.842559 0.199828 
0.200465 0.984048 0.199465 
0.316484 0.971695 0.215807 
0.428280 1.006016 0.164134 
0.538403 1.026940 0.183715 
0.655973 1.001883 0.175018 
0.743248 1.016753 0.188244 
0.857595 1.023992 0.144372 
0.951915 0.982685 0.170407 
1.070964 1.010679 0.182039 
1.167615 1.018317 0.177405 
1.307356 0.987819 0.192626 
1.383571 0.992264 0.174042 
1.488681 1.014143 0.193748 
1.581594 0.848514 0.151811 
0.861926 0.702942 0.161436 
0.598741 0.436092 0.161432 
0.584597 0.348318 0.161485 
0.565157 0.254913 0.184930 
0.549590 0.174226 0.166988 
0.508438 0.093106 0.152932 
0.786890 0.506432 0.119840 
0.964367 0.623142 0.145090 
0.924751 0.651568 0.133459 
0.796015 0.566148 0.111858 
0.663083 0.628866 0.182145 
1.135394 0.675841 0.185952 
1.245530 0.709068 0.189548 
1.350544 0.728327 0.172264 
1.442580 0.698522 0.182886 
1.507572 0.683217 0.179938 
0.009909 -0.001536 0.066873 
0.493602 -0.007158 0.076615 
0.197715 0.695610 0.080436 
0.704356 0.701983 0.106328 
0.098351 0.695542 0.084102 
0.106174 1.008704 0.101584 
1.596646 0.999489 0.099711 
1.601509 0.707746 0.112132 
0.917592 0.488293 0.095775 
0.999403 0.704043 0.085149 
0.644369 0.504874 0.099741 
0.652962 0.551215 0.089401 
0.897545 0.550483 0.105030 
1.049010 0.707507 0.081433 
1.585451 0.817325 0.109646 
1.613564 0.824791 0.040032 
1.617063 0.885540 0.032602 
1.589478 0.874727 0.098304 
0.310875 0.882511 0.066897 
0.313214 0.810373 0.081772 
0.290855 0.833182 0.133513 
0.291994 0.894626 0.128182 
1.499289 0.855213 0.129723 
1.423793 0.852274 0.153506 
1.318839 0.845775 0.136701 
1.199619 0.855652 0.126218 
1.116253 0.855141 0.122726 
1.056568 0.845959 0.136542 
0.960298 0.849143 0.135954 
0.843810 0.850160 0.134876 
0.758462 0.843596 0.154762 
0.665629 0.847067 0.121115 
0.566884 0.858006 0.124109 
0.479025 0.843163 0.142338 
0.390321 0.851096 0.122308 
1.506156 0.897267 0.093218 
1.407877 0.898150 0.095750 
1.322900 0.896542 0.081474 
1.232216 0.897917 0.100834 
1.131819 0.890408 0.077972 
1.041817 0.889686 0.085636 
0.954369 0.885732 0.084704 
0.852729 0.887156 0.089123 
0.760986 0.890496 0.109223 
0.672246 0.888980 0.070799 
0.575068 0.890650 0.090052 
0.481592 0.893085 0.098749 
0.394498 0.892758 0.074151 
1.516395 0.849654 0.039217 
1.402192 0.853583 0.067842 
1.319996 0.856870 0.046220 
1.257268 0.846681 0.042434 
1.154681 0.844103 0.035974 
1.036644 0.848293 0.035875 
0.952107 0.843345 0.049282 
0.867667 0.844580 0.046208 
0.769697 0.854762 0.049351 
0.673736 0.858188 0.023880 
0.570334 0.839984 0.031184 
0.485225 0.845125 0.050217 
0.406589 0.859572 0.032899 
1.507962 0.803073 0.085392 
1.415142 0.802221 0.101382 
1.320956 0.801219 0.086329 
1.233938 0.799974 0.091637 
1.140842 0.808289 0.091637 
1.048041 0.808361 0.091229 
0.953621 0.811775 0.101939 
0.854057 0.811315 0.084459 
0.767655 0.806579 0.086167 
0.675615 0.815673 0.085281 
0.573506 0.809404 0.086676 
0.484431 0.802257 0.099425 
0.391300 0.815337 0.085600 
1.597757 0.946420 0.122724 
1.588586 0.748802 0.142318 
1.609106 0.754421 0.061227 
1.608440 0.955438 0.050246 
1.612229 0.785944 0.013350 
1.585592 0.783730 0.158134 
1.615716 0.921112 0.003489 
1.593239 0.908259 0.143558 
1.617150 0.824447 0.010366 
1.582559 0.817994 0.132288 
1.618706 0.886045 0.003942 
1.586626 0.874519 0.122882 
1.594937 0.905931 0.105306 
1.589675 0.788782 0.119559 
1.609459 0.793399 0.050759 
1.612698 0.915008 0.039683 
1.597652 0.766549 0.097111 
1.603072 0.939621 0.083121 
0.334358 0.843688 0.122183 
1.539040 0.831700 0.102559 
0.720688 0.825916 0.113758 
0.801726 0.824053 0.117630 
0.902440 0.835412 0.114681 
0.617967 0.833247 0.099388 
1.168763 0.827220 0.108428 
0.438784 0.823206 0.112905 
1.010454 0.826263 0.119521 
0.524145 0.823586 0.115696 
1.086966 0.825259 0.109277 
1.263679 0.831083 0.106831 
1.376742 0.825554 0.120504 
1.462688 0.824909 0.120424 
0.328483 0.825296 0.110201 
1.559369 0.817748 0.091113 
0.337331 0.873476 0.115753 
1.542184 0.866901 0.099019 
0.801176 0.872050 0.126882 
0.715672 0.865105 0.111463 
0.902680 0.862922 0.106578 
0.624976 0.870630 0.097293 
1.006305 0.863030 0.108885 
0.522510 0.875359 0.116085 
0.439460 0.870281 0.108512 
1.168462 0.878309 0.106358 
1.084640 0.873372 0.101594 
1.272076 0.867840 0.111164 
1.370490 0.869163 0.117995 
1.456698 0.881420 0.123233 
0.330434 0.886636 0.102789 
1.559776 0.879738 0.084658 
0.303041 0.855578 0.105499 
0.298505 0.837382 0.112881 
0.310523 0.842352 0.091939 
0.296816 0.867530 0.119508 
0.305669 0.872161 0.094918 
1.571808 0.836905 0.039843 
0.354190 0.824531 0.086519 
0.725259 0.835030 0.061168 
0.816210 0.831560 0.063930 
0.905965 0.826259 0.070411 
0.624727 0.832001 0.052659 
1.095281 0.837053 0.062912 
0.526345 0.824173 0.066762 
0.996268 0.827700 0.070543 
1.201771 0.827869 0.067521 
0.441408 0.835998 0.067413 
1.284453 0.819726 0.063336 
1.358146 0.827755 0.077336 
1.459866 0.830539 0.078517 
1.571186 0.820191 0.061924 
0.349786 0.839003 0.072411 
0.358231 0.870713 0.061646 
1.569056 0.882079 0.056029 
0.715884 0.872730 0.061576 
0.812641 0.863901 0.080519 
0.906148 0.864950 0.070100 
0.618612 0.869256 0.050580 
1.195110 0.864164 0.069307 
0.996771 0.871125 0.064098 
1.088777 0.863151 0.056886 
0.526200 0.862653 0.073747 
0.442612 0.872590 0.060335 
1.279892 0.880826 0.065871 
1.359050 0.881454 0.068489 
1.460712 0.870552 0.078952 
0.341368 0.885867 0.078437 
1.586056 0.866204 0.030960 
0.416192 0.610117 0.012971 
0.349995 0.363353 0.007826 
0.385193 0.802605 -0.002190 
0.518005 0.724086 0.009169 
0.538952 0.546047 0.005091 
1.025262 0.846602 -0.006269 
0.325436 0.663496 -0.001186 
0.436635 0.485535 0.010841 
0.280904 0.487941 -0.016002 
0.244704 0.180751 -0.009505 
0.616991 0.831759 -0.018782 
0.286796 0.756360 0.017429 
0.418387 0.721752 -0.007447 
1.207115 0.839971 -0.003304 
0.404334 0.196242 -0.008127 
1.360592 0.855247 0.010309 
0.504503 0.831534 -0.002032 
0.478242 0.652431 0.007053 
0.482875 0.340211 0.024560 
0.587016 0.627422 0.000225 
0.314892 0.573332 -0.002653 
0.223872 0.355204 0.012154 
0.783126 0.841343 0.000854 
0.564710 0.461263 -0.000155 
1.106436 0.805319 -0.001328 
0.737917 0.515379 0.030015 
0.909997 0.903553 0.002825 
0.928643 0.765201 0.014363 
0.817579 0.559772 0.042296 
0.333261 0.885368 0.006830 
0.282074 0.619644 -0.015346 
0.460729 0.545697 0.016454 
0.367820 0.516338 -0.010065 
0.410257 0.892905 -0.023014 
0.616885 0.520804 0.004268 
1.008749 0.765005 0.007182 
0.636578 0.745715 0.019550 
0.989152 0.622827 0.017632 
0.161334 0.100934 0.012042 
0.201852 0.790117 0.002453 
1.287977 0.784927 -0.014016 
1.452021 0.795627 0.019689 
0.174717 0.280701 0.021728 
0.347305 0.102608 0.027901 
0.380542 0.652508 -0.006925 
0.922999 0.571431 0.042639 
0.209765 0.462395 -0.000284 
0.468983 0.772148 -0.000096 
0.280173 0.685383 -0.003728 
0.355041 0.440352 -0.005642 
0.204983 0.886186 -0.009416 
0.287196 0.290812 -0.003924 
1.088010 0.896055 -0.008956 
1.274597 0.900948 -0.004991 
0.268525 0.558085 -0.008503 
1.456244 0.894775 0.015636 
0.556137 0.899277 0.004122 
0.456885 0.145466 0.002425 
0.366819 0.729708 -0.010110 
0.486948 0.242949 0.011454 
0.455031 0.060201 0.005897 
0.274288 0.404521 -0.003913 
0.691343 0.916229 -0.015183 
0.630453 0.565508 0.001885 
0.619567 0.480619 0.009473 
0.552104 0.384645 -0.008550 
0.550568 0.772223 0.003852 
0.470313 0.593631 0.017984 
0.710259 0.801215 -0.004609 
0.426559 0.388894 0.021969 
[...]
POINT_DATA 749
SCALARS u float 1
LOOKUP_TABLE default
0.148359
0.049682
0.054841
0.058981
0.107447
0.037157
0.063451
0.091941
0.136804
0.053302
0.139139
0.106628
0.178651
0.019822
0.024135
0.065562
0.063604
0.041035
0.068595
0.068332
0.045635
0.081733
0.071620
0.034284
0.109306
0.092457
0.079829
0.055840
0.078743
0.098432
0.044944
0.027106
0.051022
0.065473
0.023000
0.037397
0.020691
0.071144
0.048904
0.051459
0.032818
0.039983
0.036534
0.069562
0.076453
0.091303
0.089916
0.087053
0.021293
0.029328
0.039546
0.074484
0.033710
0.028319
0.017915
0.089215
0.058990
0.055043
0.051478
0.071153
0.049066
0.093545
0.042434
0.055420
0.022520
0.019806
0.036158
0.039034
0.074688
0.110618
0.087820
0.101113
0.044994
0.063814
0.047538
0.080092
0.063197
0.022279
0.051061
0.103696
0.047141
0.020877
0.033072
0.033975
0.051788
0.076597
0.064751
0.051307
0.028473
0.060818
0.057248
0.100472
0.040234
0.063581
0.046057
0.041063
0.095905
0.045014
0.028052
0.041530
0.074117
0.021981
0.044328
0.074093
0.048943
0.074057
0.057360
0.020599
0.033370
0.071735
0.134175
0.100349
0.130251
0.158677
0.035415
0.056419
0.039464
0.085573
0.057420
0.036940
0.055424
0.036218
0.023677
0.037410
0.016655
0.034631
0.022617
0.051662
0.029263
0.013947
0.024178
0.009663
0.033502
0.025140
0.041752
0.051893
0.068096
0.058751
0.030682
0.061883
0.046403
0.036032
0.023754
0.046017
0.011519
0.067672
0.051836
0.031610
0.022816
0.029318
0.047434
0.033707
0.039289
0.026506
0.028559
0.008922
0.020158
0.019322
0.025938
0.029576
0.015290
0.025360
0.019883
0.044011
0.044280
0.012281
0.021678
0.035378
0.024001
0.057370
0.015662
0.063766
0.047969
0.024560
0.018006
0.026164
0.018513
0.050062
0.041662
0.015736
0.045413
0.011128
0.025829
0.011634
0.016562
0.013869
0.013850
0.031215
0.019680
0.011745
0.027259
0.016468
0.021766
0.024938
0.021065
0.036442
0.035114
0.020711
0.030803
0.031978
0.050975
0.042154
0.062739
0.050910
0.074356
0.063185
0.039373
0.023209
0.030232
0.046306
0.023080
0.015094
0.034105
0.049424
0.007650
0.023984
0.018216
0.035071
0.030757
0.009548
0.034593
0.020801
0.010026
0.028932
0.026639
0.018836
0.027429
0.029065
0.021210
0.050634
0.037957
0.017106
0.024836
0.033687
0.031118
0.023458
0.010042
0.035359
0.026135
0.012447
0.015273
0.031930
0.010557
0.041849
0.036553
0.036082
0.049277
0.034908
0.029914
0.061516
0.037453
0.027070
0.016951
0.008725
0.034104
0.026771
0.014786
0.006715
0.043165
0.019260
0.028425
0.030396
0.025196
0.037077
0.049423
0.031327
0.048173
0.013738
0.034565
0.018447
0.040400
0.034126
0.008104
0.031118
0.028778
0.017371
0.021532
0.027700
0.025541
0.018868
0.072177
0.043957
0.019418
0.022659
0.035242
0.025008
0.027898
0.039103
0.037934
0.048432
0.028299
0.042620
0.072178
0.059248
0.073309
0.032353
0.032301
0.020737
0.054991
0.055329
0.020701
0.032653
0.036851
0.037285
0.039728
0.025238
0.079868
0.017065
0.048047
0.123155
0.034877
0.068171
0.052780
0.028304
0.057986
0.063814
0.032588
0.047399
0.070005
0.041374
0.032870
0.042168
0.054037
0.048576
0.067564
0.020062
0.099217
0.027926
0.036001
0.061138
0.021755
0.031851
0.010635
0.050050
0.023717
0.027318
0.040500
0.041807
0.007764
0.033836
0.028331
0.038308
0.041729
0.043087
0.054555
0.067049
0.032012
0.022907
0.056740
0.038072
0.049991
0.005778
0.022575
0.047888
0.055877
0.057435
0.024150
0.054291
0.048427
0.049135
0.030371
0.047684
0.033287
0.030612
0.029600
0.029857
0.038736
0.057672
0.061241
0.007632
0.026461
0.030713
0.022364
0.029111
0.056828
0.023057
0.019529
0.041737
0.044420
0.025980
0.024383
0.046407
0.040529
0.129575
0.100735
0.051235
0.070868
0.084359
0.047346
0.020302
0.009516
0.013129
0.037218
0.017792
0.045381
0.015287
0.047646
0.026498
0.046417
0.021354
0.038453
0.030971
0.039103
0.041810
0.047912
0.033982
0.036887
0.055985
0.036479
0.039479
0.041345
0.025739
0.038953
0.044894
0.048628
0.068533
0.062906
0.082381
0.040509
0.030441
0.017880
0.079998
0.055155
0.033707
0.031845
0.045945
0.051117
0.041244
0.022965
0.107465
0.054481
0.039913
0.126454
0.027630
0.055301
0.061561
0.049181
0.033830
0.046817
0.031389
0.010845
0.086050
0.031875
0.032300
0.051629
0.043562
0.037413
0.069419
0.057505
0.074886
0.067640
0.054035
0.054979
0.042371
0.029131
0.039078
0.050115
0.033201
0.017219
0.044612
0.037836
0.036454
0.055410
0.027806
0.036123
0.045612
0.020750
0.059231
0.057853
0.064367
0.006390
0.085378
0.027937
0.042463
0.018670
0.033890
0.058913
0.035915
0.015356
0.025037
0.040063
0.054841
0.055177
0.043412
0.040169
0.042955
0.043418
0.009860
0.025327
0.030097
0.072547
0.035135
0.040013
0.013894
0.017166
0.046892
0.054956
0.031345
0.040234
0.030973
0.044710
0.016049
0.036514
0.020343
0.071041
0.038911
0.107718
0.097668
0.038571
0.047310
0.061663
0.038582
0.032309
0.036613
0.041017
0.023670
0.044205
0.043702
0.037981
0.048525
0.015341
0.041420
0.024480
0.030501
0.045412
0.033078
0.029741
0.013030
0.051501
0.051645
0.024979
0.056590
0.048922
0.035415
0.037067
0.051232
0.080511
0.014100
0.033489
0.025278
0.074928
0.009537
0.073682
0.034723
0.008903
0.031421
0.036443
0.041867
0.021633
0.030644
0.048852
0.028089
0.020038
0.068099
0.063974
0.022642
0.011683
0.027611
0.009387
0.021988
0.024591
0.031520
0.044002
0.049327
0.019735
0.008931
0.033631
0.018165
0.014035
0.053641
0.067396
0.025879
0.053928
0.046729
0.017700
0.033834
0.017211
0.027638
0.031647
0.026138
0.057632
0.019046
0.026998
0.020178
0.015752
0.033023
0.041827
0.041044
0.037434
0.046671
0.007987
0.052467
0.041638
0.012569
0.021489
0.065892
0.066433
0.027676
0.019310
0.041317
0.047222
0.045726
0.041087
0.031500
0.010877
0.044483
0.031393
0.049584
0.050196
0.029993
0.031151
0.055590
0.048725
0.032155
0.014980
0.037361
0.037555
0.016500
0.027524
0.013492
0.030023
0.021054
0.040595
0.045281
0.040501
0.015787
0.026275
0.038037
0.014333
0.005945
0.009659
0.024053
0.038501
0.024966
0.035259
0.031015
0.037812
0.032488
0.037164
0.040475
0.030541
0.039598
0.041212
0.024262
0.022303
0.021392
0.016064
0.008799
0.012297
0.027921
0.040308
0.032417
0.044359
0.025155
0.014836
0.046475
0.010265
0.026664
0.018097
0.018949
0.018003
0.020694
0.038193
0.033011
0.023622
0.033578
0.016920
0.051081
0.029264
0.017115
0.039145
0.027230
0.048513
0.023501
0.038598
0.013315
0.038917
0.033284
0.033228
0.008877
0.021476
0.015843
0.044553
0.014530
0.022223
0.046214
0.022574
0.050225
0.028046
0.013750
0.026832
0.025966
0.027098
0.024492
0.047842
0.032449
0.041608
0.026734
0.039599
0.009372
0.026612
0.024540
0.041179
0.011909
0.035666
0.042326
0.037164
0.025012
0.020094
0.037198
0.027370
0.033228
0.024461
0.025384
0.040077
0.032095
0.016951
0.025417
0.015398
0.025537
0.028232
0.015659
0.052796
0.035809
0.021272
0.060855
0.058929
0.025812
0.026265
0.024342
0.014583
0.041107
0.021112
0.026738
0.043363
0.013537
0.041079
0.020420
0.023361
0.054503
0.026982
0.054574
0.047252
0.033018
0.023314
0.051488
0.038865
0.013560
0.021973
