# vtk DataFile Version 2.0
Unstructured Grid Example
ASCII
DATASET UNSTRUCTURED_GRID
POINTS 749 float
0.009107 0.002550 -0.018637 
0.504785 -0.003749 -0.003468 
0.204036 0.697833 -0.006220 
0.700966 0.699213 0.008214 
0.093798 0.712974 -0.004721 
0.095020 1.001202 -0.001073 
1.601666 1.006429 0.005982 
1.604817 0.697303 0.011716 
0.905934 0.513091 0.010854 
0.996276 0.695100 0.004301 
0.655437 0.488966 0.010206 
0.666558 0.539987 0.006059 
0.892833 0.563504 0.019990 
1.048553 0.700217 0.002378 
0.003279 0.000361 0.180822 
0.492515 0.000391 0.174604 
0.197572 0.708217 0.182618 
0.699218 0.694984 0.182765 
0.105244 0.694076 0.185548 
0.106957 0.996238 0.185487 
1.603951 0.994975 0.180678 
1.595212 0.701505 0.190362 
0.917431 0.495991 0.171067 
0.999117 0.699852 0.175254 
0.638490 0.514652 0.181823 
0.656164 0.562614 0.176909 
0.900957 0.549423 0.168810 
1.048243 0.695106 0.174098 
1.593694 0.848641 0.125976 
1.607064 0.851745 0.033197 
1.600147 0.894628 0.083682 
1.598684 0.806509 0.086749 
0.296237 0.855536 0.137618 
0.306234 0.848468 0.051622 
0.301259 0.896362 0.092657 
0.299431 0.804974 0.095237 
0.123174 0.002269 0.000118 
0.249806 0.003128 -0.009519 
0.381534 0.001441 0.001641 
0.027614 0.090119 -0.006233 
0.050304 0.177122 -0.004096 
0.076666 0.266048 -0.004045 
0.102129 0.352732 -0.003806 
0.128865 0.444237 -0.005974 
0.154677 0.534129 -0.003282 
0.183487 0.617128 -0.008484 
0.145362 0.708375 -0.008293 
0.093030 0.851326 0.010002 
0.205883 1.001340 -0.002369 
0.313877 1.001046 0.003976 
0.421770 0.997090 -0.004738 
0.526326 0.995154 0.009031 
0.632287 1.000627 0.003226 
0.744646 0.999971 0.003565 
0.849140 0.997790 -0.000863 
0.958709 1.010291 0.007042 
1.059752 1.002033 0.006661 
1.170864 0.992958 0.003196 
1.272393 1.003732 0.000696 
1.385774 0.999125 -0.009985 
1.495188 0.994116 0.002779 
1.606106 0.850920 -0.011641 
0.846058 0.696534 -0.002860 
0.626763 0.417844 -0.000182 
0.597846 0.334003 -0.001678 
0.573952 0.251143 0.000329 
0.547167 0.168779 -0.004613 
0.525332 0.083211 -0.005282 
0.780744 0.500286 0.010359 
0.983260 0.587956 0.009858 
0.950422 0.616317 0.008802 
0.773756 0.556271 0.011847 
0.679302 0.622736 0.005875 
1.139937 0.708472 0.002459 
1.227423 0.697641 -0.002084 
1.317580 0.697165 -0.008012 
1.408960 0.702074 -0.003944 
1.507898 0.703027 0.000704 
0.128547 -0.001863 0.185974 
0.253374 -0.004119 0.166398 
0.369319 -0.002970 0.178269 
0.027874 0.088104 0.180161 
0.052390 0.177731 0.177079 
0.073279 0.261318 0.175693 
0.094799 0.346847 0.175972 
0.121968 0.430145 0.172711 
0.150360 0.516053 0.181737 
0.168685 0.613485 0.183374 
0.153657 0.698503 0.180684 
0.105511 0.847695 0.186141 
0.205074 0.995059 0.186029 
0.314967 0.991233 0.191090 
0.423550 1.001863 0.175086 
0.531616 1.008344 0.181151 
0.641989 1.000583 0.178457 
0.742978 1.005189 0.182553 
0.852352 1.007431 0.168965 
0.955524 0.994637 0.177029 
1.066354 1.003307 0.180632 
1.170247 1.005673 0.179196 
1.287487 0.996227 0.183911 
1.385050 0.997604 0.178155 
1.491564 1.004380 0.184258 
1.594299 0.849540 0.171269 
0.853694 0.700911 0.174250 
0.612758 0.422683 0.174249 
0.591942 0.337974 0.174265 
0.569486 0.251522 0.181527 
0.548229 0.169008 0.175970 
0.519049 0.086360 0.171616 
0.781395 0.501992 0.161367 
0.976884 0.607168 0.169188 
0.942180 0.633229 0.165585 
0.783974 0.555002 0.158895 
0.673774 0.626198 0.180664 
1.139724 0.692517 0.181844 
1.237111 0.702809 0.182957 
1.332911 0.708774 0.177604 
1.424693 0.699542 0.180894 
1.508098 0.694802 0.179981 
0.003069 -0.000476 0.082837 
0.498018 -0.002217 0.085854 
0.199292 0.698640 0.087038 
0.701349 0.700614 0.095057 
0.099489 0.698619 0.088173 
0.101912 1.002696 0.093588 
1.598961 0.999842 0.093008 
1.600467 0.702399 0.096855 
0.915803 0.496374 0.091789 
0.999815 0.701252 0.088498 
0.643325 0.501510 0.093017 
0.655848 0.550376 0.089814 
0.899240 0.550150 0.094655 
1.049693 0.702325 0.087346 
1.595494 0.817915 0.118049 
1.604201 0.820228 0.052559 
1.605285 0.882972 0.050258 
1.596741 0.879623 0.114536 
0.303368 0.882034 0.060880 
0.304093 0.815762 0.065487 
0.297168 0.822827 0.125441 
0.297521 0.885786 0.123790 
1.504710 0.851615 0.133365 
1.417230 0.850704 0.140732 
1.320626 0.848692 0.135527 
1.219604 0.851751 0.132280 
1.129687 0.851592 0.131199 
1.047104 0.848748 0.135478 
0.953189 0.849735 0.135296 
0.853013 0.850050 0.134961 
0.762482 0.848017 0.141121 
0.669632 0.849091 0.130700 
0.574952 0.852480 0.131627 
0.483643 0.847882 0.137273 
0.392072 0.850340 0.131069 
1.506837 0.895702 0.090997 
1.412301 0.895976 0.091781 
1.321884 0.895478 0.087359 
1.229700 0.895904 0.093356 
1.134508 0.893578 0.086275 
1.042535 0.893354 0.088648 
0.951353 0.892130 0.088360 
0.855776 0.892571 0.089728 
0.763264 0.893605 0.095954 
0.671682 0.893136 0.084053 
0.577486 0.893653 0.090016 
0.484437 0.894407 0.092710 
0.393365 0.894306 0.085091 
1.510008 0.849893 0.043209 
1.410540 0.851110 0.052075 
1.320985 0.852128 0.045378 
1.237459 0.848972 0.044205 
1.141589 0.848174 0.042205 
1.040933 0.849471 0.042174 
0.950653 0.847939 0.046326 
0.860403 0.848321 0.045374 
0.765962 0.851475 0.046348 
0.672143 0.852536 0.038459 
0.576020 0.846898 0.040721 
0.485563 0.848490 0.046616 
0.397110 0.852965 0.041252 
1.507396 0.804403 0.088573 
1.414551 0.804139 0.093525 
1.321282 0.803829 0.088863 
1.230234 0.803443 0.090507 
1.137302 0.806019 0.090507 
1.044463 0.806041 0.090381 
0.951122 0.807098 0.093698 
0.856187 0.806956 0.088284 
0.765329 0.805489 0.088813 
0.672725 0.808306 0.088538 
0.577003 0.806364 0.088970 
0.485317 0.804151 0.092919 
0.392375 0.808202 0.088637 
1.599305 0.950145 0.127965 
1.596465 0.748375 0.134033 
1.602820 0.750115 0.053259 
1.602614 0.952554 0.050402 
1.603787 0.784943 0.017961 
1.595538 0.784257 0.159401 
1.604867 0.916448 0.014291 
1.597906 0.913262 0.154887 
1.605312 0.820701 0.025656 
1.594598 0.818703 0.142778 
1.605794 0.882045 0.022974 
1.595858 0.878979 0.139864 
1.598432 0.910458 0.116264 
1.596802 0.787830 0.120736 
1.602930 0.789260 0.056266 
1.603933 0.912587 0.051026 
1.599273 0.761472 0.092203 
1.600951 0.939778 0.087356 
0.341306 0.836138 0.119123 
1.550455 0.832425 0.113045 
0.718734 0.827009 0.112890 
0.807930 0.826432 0.114089 
0.903221 0.829951 0.113175 
0.622822 0.829280 0.108439 
1.177999 0.827413 0.111239 
0.439130 0.826170 0.112625 
1.000773 0.827117 0.114675 
0.529666 0.826288 0.113490 
1.088567 0.826806 0.111502 
1.271493 0.828610 0.110744 
1.370609 0.826897 0.114979 
1.461326 0.826698 0.114954 
0.331838 0.819656 0.104626 
1.564399 0.817318 0.098714 
0.342227 0.869178 0.117132 
1.551428 0.867142 0.111949 
0.807760 0.872361 0.116955 
0.717180 0.870210 0.112179 
0.903295 0.869534 0.110666 
0.624993 0.871921 0.107790 
0.999488 0.869567 0.111380 
0.529159 0.873385 0.113610 
0.439340 0.871813 0.111265 
1.177906 0.874299 0.110598 
1.087847 0.872770 0.109122 
1.274094 0.871057 0.112086 
1.368673 0.871467 0.114202 
1.459470 0.875263 0.115824 
0.332443 0.884040 0.102331 
1.564525 0.881903 0.096715 
0.300942 0.851701 0.094904 
0.299537 0.833805 0.102183 
0.303259 0.842528 0.078282 
0.299014 0.860236 0.111629 
0.301756 0.869289 0.086879 
1.560604 0.834037 0.055310 
0.347449 0.822956 0.077015 
0.720150 0.829832 0.065539 
0.812417 0.828758 0.066394 
0.904313 0.827116 0.068402 
0.624915 0.828894 0.062903 
1.091143 0.830459 0.066079 
0.530347 0.826470 0.067271 
0.996379 0.827562 0.068443 
1.188222 0.827614 0.067507 
0.439943 0.830132 0.067473 
1.277928 0.825092 0.066210 
1.364849 0.827579 0.070546 
1.460452 0.828441 0.070912 
1.568059 0.818075 0.072935 
0.338437 0.838224 0.061859 
0.348700 0.868323 0.062063 
1.559751 0.879091 0.067571 
0.717246 0.872571 0.065665 
0.811311 0.869837 0.071532 
0.904369 0.870162 0.068305 
0.623022 0.871495 0.062259 
1.186159 0.869918 0.068060 
0.996535 0.872074 0.066446 
1.089128 0.869604 0.064213 
0.530302 0.869450 0.069435 
0.440316 0.872528 0.065281 
1.276515 0.875079 0.066995 
1.365129 0.875273 0.067806 
1.460714 0.871897 0.071047 
0.335829 0.883802 0.078049 
1.572665 0.863388 0.049021 
0.418530 0.599880 0.004017 
0.347346 0.362372 0.002424 
0.382676 0.796125 -0.000678 
0.525605 0.719126 0.002840 
0.539386 0.553055 0.001577 
1.032738 0.848050 -0.001942 
0.323460 0.675585 -0.000367 
0.438128 0.476392 0.003358 
0.290340 0.492429 -0.004956 
0.246733 0.186387 -0.002944 
0.618675 0.834608 -0.005817 
0.272396 0.769064 0.005398 
0.427148 0.706170 -0.002306 
1.184776 0.845018 -0.001023 
0.403388 0.204657 -0.002517 
1.364785 0.849363 0.003193 
0.508306 0.836629 -0.000629 
0.490425 0.641210 0.002184 
0.479273 0.341378 0.007607 
0.590667 0.632797 0.000070 
0.314780 0.583418 -0.000822 
0.230821 0.359101 0.003764 
0.773175 0.835207 0.000265 
0.552366 0.459478 -0.000048 
1.101621 0.799093 -0.000411 
0.726614 0.523846 0.009296 
0.905295 0.905223 0.000875 
0.934034 0.775210 0.004449 
0.830111 0.537739 0.013100 
0.323452 0.886575 0.002115 
0.268985 0.632855 -0.004753 
0.463023 0.533852 0.005096 
0.372056 0.512768 -0.003117 
0.402593 0.888400 -0.007128 
0.602433 0.534364 0.001322 
1.017282 0.767705 0.002225 
0.630397 0.746765 0.006055 
0.990517 0.641076 0.005461 
0.170485 0.104920 0.003730 
0.193184 0.795456 0.000760 
1.280026 0.789222 -0.004341 
1.461924 0.793384 0.006098 
0.177259 0.281782 0.006730 
0.345149 0.111231 0.008641 
0.383425 0.649591 -0.002145 
0.933194 0.571662 0.013206 
0.211172 0.453743 -0.000088 
0.475019 0.762593 -0.000030 
0.269851 0.701360 -0.001155 
0.360635 0.439912 -0.001747 
0.201247 0.892803 -0.002916 
0.289103 0.291230 -0.001215 
1.097369 0.907059 -0.002774 
1.272134 0.894824 -0.001546 
0.263497 0.561803 -0.002634 
1.458113 0.901231 0.004843 
0.567190 0.905760 0.001277 
0.457859 0.146947 0.000751 
0.372133 0.723716 -0.003131 
0.484781 0.246399 0.003547 
0.444704 0.064829 0.001826 
0.285403 0.410908 -0.001212 
0.691556 0.907680 -0.004702 
0.622915 0.580832 0.000584 
0.599940 0.484505 0.002934 
0.544095 0.383224 -0.002648 
0.554053 0.777924 0.001193 
0.477798 0.583278 0.005570 
0.700761 0.794693 -0.001427 
0.422515 0.388959 0.006804 
[...]
POINT_DATA 749
SCALARS u float 1
LOOKUP_TABLE default
0.148359
0.049682
0.054841
0.058981
0.107447
0.037157
0.063451
0.091941
0.136804
0.053302
0.139139
0.106628
0.178651
0.019822
0.024135
0.065562
0.063604
0.041035
0.068595
0.068332
0.045635
0.081733
0.071620
0.034284
0.109306
0.092457
0.079829
0.055840
0.078743
0.098432
0.044944
0.027106
0.051022
0.065473
0.023000
0.037397
0.020691
0.071144
0.048904
0.051459
0.032818
0.039983
0.036534
0.069562
0.076453
0.091303
0.089916
0.087053
0.021293
0.029328
0.039546
0.074484
0.033710
0.028319
0.017915
0.089215
0.058990
0.055043
0.051478
0.071153
0.049066
0.093545
0.042434
0.055420
0.022520
0.019806
0.036158
0.039034
0.074688
0.110618
0.087820
0.101113
0.044994
0.063814
0.047538
0.080092
0.063197
0.022279
0.051061
0.103696
0.047141
0.020877
0.033072
0.033975
0.051788
0.076597
0.064751
0.051307
0.028473
0.060818
0.057248
0.100472
0.040234
0.063581
0.046057
0.041063
0.095905
0.045014
0.028052
0.041530
0.074117
0.021981
0.044328
0.074093
0.048943
0.074057
0.057360
0.020599
0.033370
0.071735
0.134175
0.100349
0.130251
0.158677
0.035415
0.056419
0.039464
0.085573
0.057420
0.036940
0.055424
0.036218
0.023677
0.037410
0.016655
0.034631
0.022617
0.051662
0.029263
0.013947
0.024178
0.009663
0.033502
0.025140
0.041752
0.051893
0.068096
0.058751
0.030682
0.061883
0.046403
0.036032
0.023754
0.046017
0.011519
0.067672
0.051836
0.031610
0.022816
0.029318
0.047434
0.033707
0.039289
0.026506
0.028559
0.008922
0.020158
0.019322
0.025938
0.029576
0.015290
0.025360
0.019883
0.044011
0.044280
0.012281
0.021678
0.035378
0.024001
0.057370
0.015662
0.063766
0.047969
0.024560
0.018006
0.026164
0.018513
0.050062
0.041662
0.015736
0.045413
0.011128
0.025829
0.011634
0.016562
0.013869
0.013850
0.031215
0.019680
0.011745
0.027259
0.016468
0.021766
0.024938
0.021065
0.036442
0.035114
0.020711
0.030803
0.031978
0.050975
0.042154
0.062739
0.050910
0.074356
0.063185
0.039373
0.023209
0.030232
0.046306
0.023080
0.015094
0.034105
0.049424
0.007650
0.023984
0.018216
0.035071
0.030757
0.009548
0.034593
0.020801
0.010026
0.028932
0.026639
0.018836
0.027429
0.029065
0.021210
0.050634
0.037957
0.017106
0.024836
0.033687
0.031118
0.023458
0.010042
0.035359
0.026135
0.012447
0.015273
0.031930
0.010557
0.041849
0.036553
0.036082
0.049277
0.034908
0.029914
0.061516
0.037453
0.027070
0.016951
0.008725
0.034104
0.026771
0.014786
0.006715
0.043165
0.019260
0.028425
0.030396
0.025196
0.037077
0.049423
0.031327
0.048173
0.013738
0.034565
0.018447
0.040400
0.034126
0.008104
0.031118
0.028778
0.017371
0.021532
0.027700
0.025541
0.018868
0.072177
0.043957
0.019418
0.022659
0.035242
0.025008
0.027898
0.039103
0.037934
0.048432
0.028299
0.042620
0.072178
0.059248
0.073309
0.032353
0.032301
0.020737
0.054991
0.055329
0.020701
0.032653
0.036851
0.037285
0.039728
0.025238
0.079868
0.017065
0.048047
0.123155
0.034877
0.068171
0.052780
0.028304
0.057986
0.063814
0.032588
0.047399
0.070005
0.041374
0.032870
0.042168
0.054037
0.048576
0.067564
0.020062
0.099217
0.027926
0.036001
0.061138
0.021755
0.031851
0.010635
0.050050
0.023717
0.027318
0.040500
0.041807
0.007764
0.033836
0.028331
0.038308
0.041729
0.043087
0.054555
0.067049
0.032012
0.022907
0.056740
0.038072
0.049991
0.005778
0.022575
0.047888
0.055877
0.057435
0.024150
0.054291
0.048427
0.049135
0.030371
0.047684
0.033287
0.030612
0.029600
0.029857
0.038736
0.057672
0.061241
0.007632
0.026461
0.030713
0.022364
0.029111
0.056828
0.023057
0.019529
0.041737
0.044420
0.025980
0.024383
0.046407
0.040529
0.129575
0.100735
0.051235
0.070868
0.084359
0.047346
0.020302
0.009516
0.013129
0.037218
0.017792
0.045381
0.015287
0.047646
0.026498
0.046417
0.021354
0.038453
0.030971
0.039103
0.041810
0.047912
0.033982
0.036887
0.055985
0.036479
0.039479
0.041345
0.025739
0.038953
0.044894
0.048628
0.068533
0.062906
0.082381
0.040509
0.030441
0.017880
0.079998
0.055155
0.033707
0.031845
0.045945
0.051117
0.041244
0.022965
0.107465
0.054481
0.039913
0.126454
0.027630
0.055301
0.061561
0.049181
0.033830
0.046817
0.031389
0.010845
0.086050
0.031875
0.032300
0.051629
0.043562
0.037413
0.069419
0.057505
0.074886
0.067640
0.054035
0.054979
0.042371
0.029131
0.039078
0.050115
0.033201
0.017219
0.044612
0.037836
0.036454
0.055410
0.027806
0.036123
0.045612
0.020750
0.059231
0.057853
0.064367
0.006390
0.085378
0.027937
0.042463
0.018670
0.033890
0.058913
0.035915
0.015356
0.025037
0.040063
0.054841
0.055177
0.043412
0.040169
0.042955
0.043418
0.009860
0.025327
0.030097
0.072547
0.035135
0.040013
0.013894
0.017166
0.046892
0.054956
0.031345
0.040234
0.030973
0.044710
0.016049
0.036514
0.020343
0.071041
0.038911
0.107718
0.097668
0.038571
0.047310
0.061663
0.038582
0.032309
0.036613
0.041017
0.023670
0.044205
0.043702
0.037981
0.048525
0.015341
0.041420
0.024480
0.030501
0.045412
0.033078
0.029741
0.013030
0.051501
0.051645
0.024979
0.056590
0.048922
0.035415
0.037067
0.051232
0.080511
0.014100
0.033489
0.025278
0.074928
0.009537
0.073682
0.034723
0.008903
0.031421
0.036443
0.041867
0.021633
0.030644
0.048852
0.028089
0.020038
0.068099
0.063974
0.022642
0.011683
0.027611
0.009387
0.021988
0.024591
0.031520
0.044002
0.049327
0.019735
0.008931
0.033631
0.018165
0.014035
0.053641
0.067396
0.025879
0.053928
0.046729
0.017700
0.033834
0.017211
0.027638
0.031647
0.026138
0.057632
0.019046
0.026998
0.020178
0.015752
0.033023
0.041827
0.041044
0.037434
0.046671
0.007987
0.052467
0.041638
0.012569
0.021489
0.065892
0.066433
0.027676
0.019310
0.041317
0.047222
0.045726
0.041087
0.031500
0.010877
0.044483
0.031393
0.049584
0.050196
0.029993
0.031151
0.055590
0.048725
0.032155
0.014980
0.037361
0.037555
0.016500
0.027524
0.013492
0.030023
0.021054
0.040595
0.045281
0.040501
0.015787
0.026275
0.038037
0.014333
0.005945
0.009659
0.024053
0.038501
0.024966
0.035259
0.031015
0.037812
0.032488
0.037164
0.040475
0.030541
0.039598
0.041212
0.024262
0.022303
0.021392
0.016064
0.008799
0.012297
0.027921
0.040308
0.032417
0.044359
0.025155
0.014836
0.046475
0.010265
0.026664
0.018097
0.018949
0.018003
0.020694
0.038193
0.033011
0.023622
0.033578
0.016920
0.051081
0.029264
0.017115
0.039145
0.027230
0.048513
0.023501
0.038598
0.013315
0.038917
0.033284
0.033228
0.008877
0.021476
0.015843
0.044553
0.014530
0.022223
0.046214
0.022574
0.050225
0.028046
0.013750
0.026832
0.025966
0.027098
0.024492
0.047842
0.032449
0.041608
0.026734
0.039599
0.009372
0.026612
0.024540
0.041179
0.011909
0.035666
0.042326
0.037164
0.025012
0.020094
0.037198
0.027370
0.033228
0.024461
0.025384
0.040077
0.032095
0.016951
0.025417
0.015398
0.025537
0.028232
0.015659
0.052796
0.035809
0.021272
0.060855
0.058929
0.025812
0.026265
0.024342
0.014583
0.041107
0.021112
0.026738
0.043363
0.013537
0.041079
0.020420
0.023361
0.054503
0.026982
0.054574
0.047252
0.033018
0.023314
0.051488
0.038865
0.013560
0.021973
