# vtk DataFile Version 2.0
Unstructured Grid Example
ASCII
DATASET UNSTRUCTURED_GRID
POINTS 749 float
-0.022306 -0.006247 0.045649 
0.488280 0.009183 0.008495 
0.190114 0.705307 0.015236 
0.697633 0.701927 -0.020120 
0.115192 0.668221 0.011564 
0.112198 0.997056 0.002627 
1.595920 0.984252 -0.014652 
1.588202 0.706606 -0.028697 
0.937207 0.467935 -0.026585 
1.009123 0.712002 -0.010535 
0.612045 0.527027 -0.024999 
0.634082 0.574525 -0.014842 
0.917555 0.516922 -0.048963 
1.053544 0.699469 -0.005825 
-0.008032 -0.000884 0.177986 
0.518334 -0.000957 0.193217 
0.205947 0.679872 0.173588 
0.701915 0.712286 0.173228 
0.087156 0.714511 0.166412 
0.082960 1.009214 0.166560 
1.590322 1.012309 0.178340 
1.611727 0.696315 0.154619 
0.909046 0.509819 0.201882 
1.002164 0.700363 0.191624 
0.653553 0.464110 0.175534 
0.659541 0.519103 0.187572 
0.897656 0.551413 0.207408 
1.054304 0.711988 0.194456 
1.615446 0.853329 0.157102 
1.582698 0.845726 0.073911 
1.599640 0.895912 0.105476 
1.603223 0.801303 0.097964 
0.309217 0.836441 0.128588 
0.284731 0.853752 0.028779 
0.296917 0.891665 0.083492 
0.301395 0.805064 0.077172 
0.129472 -0.005558 -0.000289 
0.250476 -0.007661 0.023317 
0.358996 -0.003529 -0.004019 
0.018598 0.081084 0.015268 
0.049255 0.169803 0.010033 
0.070920 0.253810 0.009908 
0.094784 0.343309 0.009323 
0.115532 0.420998 0.014633 
0.138545 0.502639 0.008040 
0.154213 0.601164 0.020780 
0.161361 0.679486 0.020313 
0.117074 0.846752 -0.024498 
0.210230 0.996718 0.005803 
0.315287 0.997437 -0.009738 
0.420592 1.007127 0.011606 
0.534071 1.011870 -0.022121 
0.644110 0.998465 -0.007903 
0.738474 1.000071 -0.008733 
0.852105 1.005414 0.002114 
0.953307 0.974793 -0.017248 
1.075390 0.995020 -0.016315 
1.172812 1.017248 -0.007828 
1.293705 0.990858 -0.001704 
1.385568 1.002144 0.024456 
1.487148 1.014412 -0.006807 
1.585044 0.847747 0.028514 
0.859655 0.708490 0.007005 
0.600150 0.413783 0.000446 
0.588851 0.331694 0.004110 
0.565247 0.247199 -0.000805 
0.548725 0.161493 0.011299 
0.520081 0.083634 0.012938 
0.774481 0.499299 -0.025374 
0.980639 0.629501 -0.024145 
0.948966 0.646268 -0.021559 
0.790367 0.534640 -0.029019 
0.676782 0.630547 -0.014389 
1.145903 0.679249 -0.006023 
1.247811 0.705777 0.005105 
1.343174 0.706945 0.019626 
1.435543 0.694919 0.009661 
1.509400 0.692585 -0.001723 
0.116312 0.004564 0.165368 
0.241737 0.010089 0.213318 
0.388916 0.007275 0.184241 
0.017961 0.086021 0.179606 
0.044145 0.168311 0.187155 
0.079215 0.265395 0.190549 
0.112740 0.357724 0.189866 
0.132427 0.455516 0.197854 
0.149119 0.546915 0.175745 
0.190468 0.610089 0.171735 
0.141041 0.703668 0.178325 
0.086501 0.855645 0.164958 
0.212209 1.012102 0.165233 
0.312618 1.021473 0.152836 
0.416231 0.995436 0.192037 
0.521113 0.979562 0.177181 
0.620345 0.998571 0.183779 
0.742561 0.987290 0.173746 
0.844239 0.981799 0.207029 
0.961109 1.013135 0.187277 
1.059220 0.991899 0.178453 
1.174322 0.986104 0.181968 
1.256735 1.009241 0.170421 
1.387340 1.005869 0.184520 
1.496025 0.989271 0.169570 
1.613963 0.851127 0.201385 
0.840953 0.697768 0.194083 
0.634453 0.401930 0.194086 
0.603311 0.321965 0.194046 
0.576186 0.246273 0.176260 
0.546124 0.160932 0.189872 
0.535471 0.075920 0.200535 
0.772888 0.495120 0.225640 
0.996256 0.582444 0.206484 
0.969155 0.604845 0.215307 
0.765338 0.537749 0.231695 
0.690322 0.622067 0.178373 
1.146425 0.718328 0.175484 
1.224081 0.693121 0.172756 
1.305622 0.678510 0.185869 
1.397008 0.701121 0.177811 
1.508911 0.712732 0.180047 
-0.007518 0.001165 0.107545 
0.504854 0.005430 0.100155 
0.201734 0.703330 0.097256 
0.696696 0.698496 0.077613 
0.101251 0.703382 0.094475 
0.095316 0.993397 0.081212 
1.602544 1.000388 0.082633 
1.598855 0.694124 0.073210 
0.913034 0.508882 0.085619 
1.000453 0.696933 0.093680 
0.641710 0.496303 0.082610 
0.660315 0.549078 0.090455 
0.901863 0.549633 0.078597 
1.050751 0.694305 0.096500 
1.611037 0.818829 0.131055 
1.589710 0.813165 0.071948 
1.587055 0.878997 0.077585 
1.607983 0.887200 0.139660 
0.291750 0.881296 0.051567 
0.289975 0.824103 0.040282 
0.306938 0.806799 0.112949 
0.306073 0.872104 0.116993 
1.513101 0.846045 0.139004 
1.407073 0.848275 0.120961 
1.323393 0.853205 0.133710 
1.250535 0.845712 0.141662 
1.150478 0.846100 0.144311 
1.032456 0.853066 0.133830 
0.942188 0.850650 0.134276 
0.867258 0.849878 0.135094 
0.768703 0.854858 0.120008 
0.675828 0.852225 0.145533 
0.587438 0.843926 0.143263 
0.490789 0.855187 0.129433 
0.394781 0.849168 0.144629 
1.507891 0.893280 0.087559 
1.419147 0.892610 0.085638 
1.320312 0.893830 0.096468 
1.225807 0.892787 0.081781 
1.138670 0.898483 0.099125 
1.043646 0.899031 0.093311 
0.946685 0.902031 0.094018 
0.860491 0.900951 0.090665 
0.766789 0.898417 0.075417 
0.670809 0.899567 0.104567 
0.581229 0.898300 0.089960 
0.488842 0.896453 0.083363 
0.391612 0.896701 0.102024 
1.500124 0.850262 0.049388 
1.423461 0.847282 0.027672 
1.322515 0.844788 0.044074 
1.206801 0.852518 0.046946 
1.121325 0.854473 0.051847 
1.047570 0.851295 0.051922 
0.948402 0.855049 0.041751 
0.849159 0.854112 0.044084 
0.760180 0.846387 0.041699 
0.669678 0.843788 0.061022 
0.584821 0.857598 0.055481 
0.486085 0.853698 0.041042 
0.382439 0.842739 0.054180 
1.506522 0.806462 0.093495 
1.413636 0.807109 0.081366 
1.321787 0.807868 0.092785 
1.224500 0.808813 0.088758 
1.131825 0.802505 0.088758 
1.038925 0.802450 0.089068 
0.947253 0.799860 0.080943 
0.859484 0.800209 0.094204 
0.761730 0.803802 0.092908 
0.668252 0.796903 0.093580 
0.582414 0.801659 0.092522 
0.486688 0.807081 0.082850 
0.394038 0.797158 0.093338 
1.601701 0.955911 0.136076 
1.608659 0.747714 0.121211 
1.593092 0.743452 0.040927 
1.593597 0.948091 0.050644 
1.590723 0.783394 0.025099 
1.610930 0.785073 0.161362 
1.588078 0.909230 0.031010 
1.605129 0.921004 0.172420 
1.586989 0.814904 0.049320 
1.613231 0.819799 0.159012 
1.585809 0.875856 0.052431 
1.610146 0.885880 0.166148 
1.603841 0.917466 0.133224 
1.607833 0.786358 0.122557 
1.592824 0.782855 0.064788 
1.590367 0.908840 0.068581 
1.601782 0.753613 0.084605 
1.597670 0.940020 0.093911 
0.352060 0.824452 0.114387 
1.568121 0.833547 0.129274 
0.715710 0.828702 0.111546 
0.817533 0.830115 0.108608 
0.904430 0.821497 0.110845 
0.630335 0.823140 0.122448 
1.192293 0.827712 0.115589 
0.439667 0.830758 0.112193 
0.985788 0.828438 0.107173 
0.538210 0.830470 0.110076 
1.091045 0.829200 0.114945 
1.283589 0.824782 0.116801 
1.361116 0.828977 0.106428 
1.459217 0.829465 0.106489 
0.337032 0.810926 0.095999 
1.572184 0.816652 0.110479 
0.349804 0.862527 0.119265 
1.565736 0.867515 0.131960 
0.817950 0.872841 0.101589 
0.719515 0.878110 0.113286 
0.904247 0.879766 0.116993 
0.625018 0.873919 0.124036 
0.988936 0.879685 0.115243 
0.539451 0.870331 0.109780 
0.439153 0.874184 0.115525 
1.192522 0.868093 0.117159 
1.092810 0.871839 0.120774 
1.277218 0.876035 0.113513 
1.365860 0.875031 0.108332 
1.463761 0.865733 0.104358 
0.335552 0.880021 0.101622 
1.571875 0.885255 0.115376 
0.297693 0.845701 0.078506 
0.301134 0.828269 0.085624 
0.292017 0.842802 0.057143 
0.302415 0.848948 0.099434 
0.295699 0.864843 0.074435 
1.543262 0.829598 0.079249 
0.337015 0.820520 0.062304 
0.712242 0.821788 0.072304 
0.806545 0.824420 0.070208 
0.901756 0.828442 0.065291 
0.625207 0.824085 0.078759 
1.084737 0.820253 0.070980 
0.536541 0.830024 0.068060 
0.996551 0.827348 0.065191 
1.167252 0.827220 0.067484 
0.437675 0.821053 0.067566 
1.267829 0.833397 0.070659 
1.375225 0.827307 0.060038 
1.461358 0.825194 0.059142 
1.563219 0.814799 0.089976 
0.320871 0.837019 0.045528 
0.333949 0.864623 0.062708 
1.545350 0.874466 0.085435 
0.719354 0.872325 0.071994 
0.809253 0.879024 0.057624 
0.901617 0.878227 0.065527 
0.629846 0.874961 0.080336 
1.172305 0.878824 0.066129 
0.996169 0.873543 0.070081 
1.089672 0.879592 0.075552 
0.536651 0.879971 0.062761 
0.436762 0.872432 0.072936 
1.271289 0.866184 0.068736 
1.374539 0.865707 0.066749 
1.460716 0.873978 0.058812 
0.327257 0.880605 0.077449 
1.551938 0.859030 0.076974 
0.422149 0.584035 -0.009840 
0.343246 0.360853 -0.005937 
0.378780 0.786097 0.001661 
0.537368 0.711450 -0.006956 
0.540057 0.563900 -0.003862 
1.044308 0.850291 0.004756 
0.320403 0.694295 0.000900 
0.440439 0.462240 -0.008224 
0.304945 0.499376 0.012140 
0.249874 0.195111 0.007210 
0.621281 0.839016 0.014249 
0.250110 0.788727 -0.013222 
0.440709 0.682053 0.005649 
1.150202 0.852830 0.002507 
0.401923 0.217680 0.006165 
1.371275 0.840255 -0.007820 
0.514192 0.844514 0.001541 
0.509282 0.623842 -0.005351 
0.473699 0.343185 -0.018632 
0.596317 0.641115 -0.000170 
0.314608 0.599028 0.002012 
0.241576 0.365132 -0.009220 
0.757773 0.825711 -0.000648 
0.533262 0.456716 0.000117 
1.094168 0.789458 0.001007 
0.709120 0.536952 -0.022771 
0.898017 0.907809 -0.002143 
0.942378 0.790700 -0.010896 
0.849506 0.503637 -0.032087 
0.308271 0.888442 -0.005182 
0.248727 0.653303 0.011642 
0.466572 0.515518 -0.012483 
0.378613 0.507243 0.007636 
0.390731 0.881427 0.017459 
0.580066 0.555350 -0.003238 
1.030488 0.771884 -0.005449 
0.620829 0.748390 -0.014832 
0.992631 0.669320 -0.013376 
0.184648 0.111090 -0.009135 
0.179770 0.803718 -0.001861 
1.267720 0.795868 0.010633 
1.477252 0.789912 -0.014936 
0.181194 0.283455 -0.016483 
0.341812 0.124578 -0.021166 
0.387888 0.645077 0.005253 
0.948973 0.572020 -0.032347 
0.213350 0.440353 0.000215 
0.484362 0.747804 0.000073 
0.253877 0.726087 0.002828 
0.369293 0.439232 0.004280 
0.195465 0.903045 0.007143 
0.292055 0.291877 0.002977 
1.111853 0.924092 0.006794 
1.268321 0.885345 0.003786 
0.255715 0.567557 0.006451 
1.461007 0.911222 -0.011862 
0.584295 0.915793 -0.003127 
0.459366 0.149238 -0.001840 
0.380358 0.714442 0.007670 
0.481428 0.251740 -0.008689 
0.428719 0.071992 -0.004473 
0.302606 0.420793 0.002969 
0.691885 0.894447 0.011518 
0.611250 0.604550 -0.001430 
0.569562 0.490519 -0.007187 
0.531698 0.381024 0.006486 
0.559447 0.786748 -0.002922 
0.489384 0.567255 -0.013643 
0.686061 0.784598 0.003497 
[...]
POINT_DATA 749
SCALARS u float 1
LOOKUP_TABLE default
0.148359
0.049682
0.054841
0.058981
0.107447
0.037157
0.063451
0.091941
0.136804
0.053302
0.139139
0.106628
0.178651
0.019822
0.024135
0.065562
0.063604
0.041035
0.068595
0.068332
0.045635
0.081733
0.071620
0.034284
0.109306
0.092457
0.079829
0.055840
0.078743
0.098432
0.044944
0.027106
0.051022
0.065473
0.023000
0.037397
0.020691
0.071144
0.048904
0.051459
0.032818
0.039983
0.036534
0.069562
0.076453
0.091303
0.089916
0.087053
0.021293
0.029328
0.039546
0.074484
0.033710
0.028319
0.017915
0.089215
0.058990
0.055043
0.051478
0.071153
0.049066
0.093545
0.042434
0.055420
0.022520
0.019806
0.036158
0.039034
0.074688
0.110618
0.087820
0.101113
0.044994
0.063814
0.047538
0.080092
0.063197
0.022279
0.051061
0.103696
0.047141
0.020877
0.033072
0.033975
0.051788
0.076597
0.064751
0.051307
0.028473
0.060818
0.057248
0.100472
0.040234
0.063581
0.046057
0.041063
0.095905
0.045014
0.028052
0.041530
0.074117
0.021981
0.044328
0.074093
0.048943
0.074057
0.057360
0.020599
0.033370
0.071735
0.134175
0.100349
0.130251
0.158677
0.035415
0.056419
0.039464
0.085573
0.057420
0.036940
0.055424
0.036218
0.023677
0.037410
0.016655
0.034631
0.022617
0.051662
0.029263
0.013947
0.024178
0.009663
0.033502
0.025140
0.041752
0.051893
0.068096
0.058751
0.030682
0.061883
0.046403
0.036032
0.023754
0.046017
0.011519
0.067672
0.051836
0.031610
0.022816
0.029318
0.047434
0.033707
0.039289
0.026506
0.028559
0.008922
0.020158
0.019322
0.025938
0.029576
0.015290
0.025360
0.019883
0.044011
0.044280
0.012281
0.021678
0.035378
0.024001
0.057370
0.015662
0.063766
0.047969
0.024560
0.018006
0.026164
0.018513
0.050062
0.041662
0.015736
0.045413
0.011128
0.025829
0.011634
0.016562
0.013869
0.013850
0.031215
0.019680
0.011745
0.027259
0.016468
0.021766
0.024938
0.021065
0.036442
0.035114
0.020711
0.030803
0.031978
0.050975
0.042154
0.062739
0.050910
0.074356
0.063185
0.039373
0.023209
0.030232
0.046306
0.023080
0.015094
0.034105
0.049424
0.007650
0.023984
0.018216
0.035071
0.030757
0.009548
0.034593
0.020801
0.010026
0.028932
0.026639
0.018836
0.027429
0.029065
0.021210
0.050634
0.037957
0.017106
0.024836
0.033687
0.031118
0.023458
0.010042
0.035359
0.026135
0.012447
0.015273
0.031930
0.010557
0.041849
0.036553
0.036082
0.049277
0.034908
0.029914
0.061516
0.037453
0.027070
0.016951
0.008725
0.034104
0.026771
0.014786
0.006715
0.043165
0.019260
0.028425
0.030396
0.025196
0.037077
0.049423
0.031327
0.048173
0.013738
0.034565
0.018447
0.040400
0.034126
0.008104
0.031118
0.028778
0.017371
0.021532
0.027700
0.025541
0.018868
0.072177
0.043957
0.019418
0.022659
0.035242
0.025008
0.027898
0.039103
0.037934
0.048432
0.028299
0.042620
0.072178
0.059248
0.073309
0.032353
0.032301
0.020737
0.054991
0.055329
0.020701
0.032653
0.036851
0.037285
0.039728
0.025238
0.079868
0.017065
0.048047
0.123155
0.034877
0.068171
0.052780
0.028304
0.057986
0.063814
0.032588
0.047399
0.070005
0.041374
0.032870
0.042168
0.054037
0.048576
0.067564
0.020062
0.099217
0.027926
0.036001
0.061138
0.021755
0.031851
0.010635
0.050050
0.023717
0.027318
0.040500
0.041807
0.007764
0.033836
0.028331
0.038308
0.041729
0.043087
0.054555
0.067049
0.032012
0.022907
0.056740
0.038072
0.049991
0.005778
0.022575
0.047888
0.055877
0.057435
0.024150
0.054291
0.048427
0.049135
0.030371
0.047684
0.033287
0.030612
0.029600
0.029857
0.038736
0.057672
0.061241
0.007632
0.026461
0.030713
0.022364
0.029111
0.056828
0.023057
0.019529
0.041737
0.044420
0.025980
0.024383
0.046407
0.040529
0.129575
0.100735
0.051235
0.070868
0.084359
0.047346
0.020302
0.009516
0.013129
0.037218
0.017792
0.045381
0.015287
0.047646
0.026498
0.046417
0.021354
0.038453
0.030971
0.039103
0.041810
0.047912
0.033982
0.036887
0.055985
0.036479
0.039479
0.041345
0.025739
0.038953
0.044894
0.048628
0.068533
0.062906
0.082381
0.040509
0.030441
0.017880
0.079998
0.055155
0.033707
0.031845
0.045945
0.051117
0.041244
0.022965
0.107465
0.054481
0.039913
0.126454
0.027630
0.055301
0.061561
0.049181
0.033830
0.046817
0.031389
0.010845
0.086050
0.031875
0.032300
0.051629
0.043562
0.037413
0.069419
0.057505
0.074886
0.067640
0.054035
0.054979
0.042371
0.029131
0.039078
0.050115
0.033201
0.017219
0.044612
0.037836
0.036454
0.055410
0.027806
0.036123
0.045612
0.020750
0.059231
0.057853
0.064367
0.006390
0.085378
0.027937
0.042463
0.018670
0.033890
0.058913
0.035915
0.015356
0.025037
0.040063
0.054841
0.055177
0.043412
0.040169
0.042955
0.043418
0.009860
0.025327
0.030097
0.072547
0.035135
0.040013
0.013894
0.017166
0.046892
0.054956
0.031345
0.040234
0.030973
0.044710
0.016049
0.036514
0.020343
0.071041
0.038911
0.107718
0.097668
0.038571
0.047310
0.061663
0.038582
0.032309
0.036613
0.041017
0.023670
0.044205
0.043702
0.037981
0.048525
0.015341
0.041420
0.024480
0.030501
0.045412
0.033078
0.029741
0.013030
0.051501
0.051645
0.024979
0.056590
0.048922
0.035415
0.037067
0.051232
0.080511
0.014100
0.033489
0.025278
0.074928
0.009537
0.073682
0.034723
0.008903
0.031421
0.036443
0.041867
0.021633
0.030644
0.048852
0.028089
0.020038
0.068099
0.063974
0.022642
0.011683
0.027611
0.009387
0.021988
0.024591
0.031520
0.044002
0.049327
0.019735
0.008931
0.033631
0.018165
0.014035
0.053641
0.067396
0.025879
0.053928
0.046729
0.017700
0.033834
0.017211
0.027638
0.031647
0.026138
0.057632
0.019046
0.026998
0.020178
0.015752
0.033023
0.041827
0.041044
0.037434
0.046671
0.007987
0.052467
0.041638
0.012569
0.021489
0.065892
0.066433
0.027676
0.019310
0.041317
0.047222
0.045726
0.041087
0.031500
0.010877
0.044483
0.031393
0.049584
0.050196
0.029993
0.031151
0.055590
0.048725
0.032155
0.014980
0.037361
0.037555
0.016500
0.027524
0.013492
0.030023
0.021054
0.040595
0.045281
0.040501
0.015787
0.026275
0.038037
0.014333
0.005945
0.009659
0.024053
0.038501
0.024966
0.035259
0.031015
0.037812
0.032488
0.037164
0.040475
0.030541
0.039598
0.041212
0.024262
0.022303
0.021392
0.016064
0.008799
0.012297
0.027921
0.040308
0.032417
0.044359
0.025155
0.014836
0.046475
0.010265
0.026664
0.018097
0.018949
0.018003
0.020694
0.038193
0.033011
0.023622
0.033578
0.016920
0.051081
0.029264
0.017115
0.039145
0.027230
0.048513
0.023501
0.038598
0.013315
0.038917
0.033284
0.033228
0.008877
0.021476
0.015843
0.044553
0.014530
0.022223
0.046214
0.022574
0.050225
0.028046
0.013750
0.026832
0.025966
0.027098
0.024492
0.047842
0.032449
0.041608
0.026734
0.039599
0.009372
0.026612
0.024540
0.041179
0.011909
0.035666
0.042326
0.037164
0.025012
0.020094
0.037198
0.027370
0.033228
0.024461
0.025384
0.040077
0.032095
0.016951
0.025417
0.015398
0.025537
0.028232
0.015659
0.052796
0.035809
0.021272
0.060855
0.058929
0.025812
0.026265
0.024342
0.014583
0.041107
0.021112
0.026738
0.043363
0.013537
0.041079
0.020420
0.023361
0.054503
0.026982
0.054574
0.047252
0.033018
0.023314
0.051488
0.038865
0.013560
0.021973
