# vtk DataFile Version 2.0
Unstructured Grid Example
ASCII
DATASET UNSTRUCTURED_GRID
POINTS 749 float
-0.032287 -0.009042 0.066075 
0.483036 0.013293 0.012296 
0.185690 0.707682 0.022054 
0.696574 0.702789 -0.029124 
0.121990 0.654001 0.016738 
0.117657 0.995739 0.003803 
1.594095 0.977206 -0.021208 
1.582922 0.709562 -0.041538 
0.947144 0.453586 -0.038481 
1.013205 0.717372 -0.015248 
0.598257 0.539120 -0.036185 
0.623763 0.585500 -0.021483 
0.925410 0.502121 -0.070872 
1.055130 0.699232 -0.008432 
-0.011626 -0.001279 0.177085 
0.526538 -0.001386 0.199131 
0.208609 0.670866 0.170719 
0.702773 0.717783 0.170198 
0.081409 0.721004 0.160331 
0.075335 1.013337 0.160546 
1.585992 1.017817 0.177597 
1.616975 0.694666 0.143262 
0.906382 0.514213 0.211673 
1.003132 0.700526 0.196826 
0.658339 0.448051 0.173535 
0.660614 0.505278 0.190961 
0.896607 0.552045 0.219672 
1.056230 0.717352 0.200924 
1.622358 0.854819 0.166993 
1.574956 0.843813 0.086848 
1.599478 0.896320 0.112402 
1.604665 0.799649 0.101527 
0.313342 0.830374 0.125719 
0.277899 0.855431 0.021520 
0.295537 0.890172 0.080581 
0.302019 0.805092 0.071432 
0.131473 -0.008045 -0.000418 
0.250689 -0.011088 0.033750 
0.351835 -0.005109 -0.005817 
0.015733 0.078214 0.022100 
0.048921 0.167478 0.014522 
0.069094 0.249922 0.014341 
0.092450 0.340315 0.013495 
0.111295 0.413614 0.021181 
0.133419 0.492633 0.011637 
0.144911 0.596091 0.030079 
0.166445 0.670306 0.029402 
0.124714 0.845299 -0.035460 
0.211611 0.995250 0.008400 
0.315736 0.996291 -0.014095 
0.420217 1.010316 0.016799 
0.536532 1.017182 -0.032019 
0.647866 0.997779 -0.011439 
0.736513 1.000103 -0.012641 
0.853048 1.007836 0.003060 
0.951590 0.963514 -0.024966 
1.080358 0.992792 -0.023616 
1.173431 1.024967 -0.011330 
1.300476 0.986768 -0.002467 
1.385503 1.003104 0.035400 
1.484594 1.020861 -0.009852 
1.578351 0.846738 0.041272 
0.863975 0.712289 0.010140 
0.591693 0.412493 0.000646 
0.585993 0.330960 0.005949 
0.562481 0.245946 -0.001165 
0.549220 0.159178 0.016354 
0.518413 0.083768 0.018728 
0.772490 0.498986 -0.036728 
0.979806 0.642702 -0.034949 
0.948504 0.655785 -0.031205 
0.795644 0.527767 -0.042004 
0.675982 0.633029 -0.020828 
1.147799 0.669964 -0.008718 
1.254289 0.708363 0.007390 
1.351306 0.710052 0.028408 
1.443990 0.692645 0.013983 
1.509878 0.689267 -0.002495 
0.112425 0.006607 0.158821 
0.238039 0.014604 0.228226 
0.395143 0.010530 0.186139 
0.014811 0.085360 0.179430 
0.041525 0.165318 0.190356 
0.081102 0.266690 0.195269 
0.118441 0.361180 0.194280 
0.135751 0.463578 0.205843 
0.148725 0.556721 0.173840 
0.197389 0.609009 0.168036 
0.137033 0.705309 0.177575 
0.080461 0.858171 0.158227 
0.214476 1.017517 0.158626 
0.311871 1.031082 0.140680 
0.413906 0.993394 0.197422 
0.517775 0.970417 0.175920 
0.613468 0.997932 0.185470 
0.742428 0.981603 0.170948 
0.841660 0.973655 0.219123 
0.962884 1.019013 0.190534 
1.056953 0.988274 0.177761 
1.175617 0.979887 0.182849 
1.246963 1.013376 0.166135 
1.388068 1.008495 0.186543 
1.497443 0.984470 0.164903 
1.620211 0.851631 0.210954 
0.836904 0.696770 0.200385 
0.641347 0.395335 0.200389 
0.606923 0.316879 0.200332 
0.578315 0.244605 0.174586 
0.545455 0.158366 0.194289 
0.540689 0.072602 0.209724 
0.770186 0.492937 0.246062 
1.002412 0.574588 0.218335 
0.977726 0.595826 0.231106 
0.759417 0.532267 0.254826 
0.695579 0.620754 0.177644 
1.148554 0.726529 0.173464 
1.219940 0.690042 0.169515 
1.296950 0.668894 0.188495 
1.388211 0.701623 0.176831 
1.509169 0.718430 0.180069 
-0.010881 0.001686 0.115396 
0.507026 0.007860 0.104698 
0.202509 0.704820 0.100502 
0.695217 0.697822 0.072070 
0.101811 0.704895 0.096477 
0.093220 0.990442 0.077279 
1.603683 1.000561 0.079336 
1.598343 0.691495 0.065697 
0.912154 0.512856 0.083659 
1.000655 0.695560 0.095327 
0.641197 0.494648 0.079304 
0.661734 0.548666 0.090658 
0.902696 0.549469 0.073495 
1.051087 0.691757 0.099408 
1.615976 0.819120 0.135188 
1.585105 0.810921 0.078109 
1.581263 0.877734 0.086267 
1.611555 0.889608 0.147642 
0.288058 0.881061 0.048608 
0.285490 0.826754 0.032274 
0.310042 0.801706 0.108980 
0.308791 0.867757 0.114834 
1.515768 0.844275 0.140795 
1.403846 0.847503 0.114678 
1.324272 0.854639 0.133132 
1.260364 0.843793 0.144644 
1.157085 0.844354 0.148478 
1.027801 0.854437 0.133307 
0.938692 0.850941 0.133952 
0.871784 0.849824 0.135137 
0.770680 0.857032 0.113300 
0.677797 0.853221 0.150247 
0.591405 0.841208 0.146960 
0.493059 0.857508 0.126942 
0.395642 0.848796 0.148937 
1.508226 0.892511 0.086467 
1.421323 0.891541 0.083686 
1.319812 0.893306 0.099362 
1.224569 0.891796 0.078103 
1.139992 0.900042 0.103209 
1.043999 0.900835 0.094792 
0.945202 0.905177 0.095816 
0.861989 0.903613 0.090963 
0.767909 0.899946 0.068892 
0.670531 0.901610 0.111085 
0.582419 0.899777 0.089942 
0.490241 0.897103 0.080393 
0.391056 0.897462 0.107404 
1.496984 0.850380 0.051351 
1.427566 0.846066 0.019918 
1.323001 0.842456 0.043660 
1.197060 0.853644 0.047817 
1.114886 0.856475 0.054911 
1.049679 0.851875 0.055020 
0.947686 0.857308 0.040297 
0.845586 0.855952 0.043673 
0.758343 0.844770 0.040222 
0.668894 0.841009 0.068192 
0.587617 0.860998 0.060171 
0.486251 0.855353 0.039271 
0.377778 0.839489 0.058288 
1.506244 0.807116 0.095060 
1.413346 0.808052 0.077502 
1.321948 0.809152 0.094032 
1.222678 0.810519 0.088203 
1.130084 0.801388 0.088203 
1.037165 0.801309 0.088650 
0.946023 0.797560 0.076890 
0.860532 0.798065 0.096085 
0.760586 0.803266 0.094209 
0.666831 0.793280 0.095182 
0.584134 0.800164 0.093650 
0.487124 0.808012 0.079650 
0.394567 0.793649 0.094832 
1.602463 0.957743 0.138653 
1.612534 0.747505 0.117137 
1.590001 0.741334 0.037009 
1.590733 0.946673 0.050721 
1.586572 0.782901 0.027366 
1.615821 0.785332 0.161985 
1.582743 0.906937 0.036322 
1.607424 0.923464 0.177991 
1.581167 0.813062 0.056840 
1.619152 0.820147 0.164170 
1.579458 0.873889 0.061790 
1.614686 0.888073 0.174499 
1.605560 0.919693 0.138613 
1.611338 0.785890 0.123135 
1.589613 0.780820 0.067497 
1.586056 0.907649 0.074159 
1.602579 0.751116 0.082191 
1.596627 0.940097 0.095993 
0.355477 0.820739 0.112882 
1.573734 0.833903 0.134431 
0.714749 0.829239 0.111118 
0.820585 0.831285 0.106867 
0.904814 0.818812 0.110105 
0.632723 0.821189 0.126899 
1.196835 0.827807 0.116971 
0.439837 0.832215 0.112055 
0.981027 0.828858 0.104790 
0.540926 0.831798 0.108991 
1.091833 0.829961 0.116040 
1.287432 0.823565 0.118725 
1.358100 0.829637 0.103711 
1.458547 0.830345 0.103799 
0.338683 0.808152 0.093257 
1.574658 0.816440 0.114217 
0.352212 0.860413 0.119943 
1.570283 0.867633 0.138319 
0.821188 0.872994 0.096707 
0.720257 0.880620 0.113638 
0.904550 0.883017 0.119003 
0.625027 0.874554 0.129199 
0.985583 0.882899 0.116470 
0.542721 0.869361 0.108563 
0.439094 0.874937 0.116879 
1.197166 0.866122 0.119244 
1.094387 0.871543 0.124476 
1.278211 0.877617 0.113967 
1.364966 0.876164 0.106466 
1.465125 0.862705 0.100714 
0.336539 0.878745 0.101396 
1.574211 0.886320 0.121306 
0.296661 0.843795 0.073295 
0.301641 0.826510 0.080363 
0.288444 0.842889 0.050426 
0.303496 0.845361 0.095559 
0.293775 0.863430 0.070482 
1.537752 0.828187 0.086855 
0.333699 0.819745 0.057630 
0.709729 0.819232 0.074454 
0.804679 0.823041 0.071420 
0.900943 0.828863 0.064303 
0.625300 0.822558 0.083797 
1.082702 0.817010 0.072538 
0.538509 0.831153 0.068310 
0.996605 0.827281 0.064158 
1.160589 0.827095 0.067477 
0.436955 0.818168 0.067596 
1.264620 0.836036 0.072073 
1.378521 0.827220 0.056699 
1.461646 0.824163 0.055403 
1.561682 0.813758 0.095391 
0.315289 0.836636 0.040339 
0.329262 0.863447 0.062913 
1.540774 0.872996 0.091111 
0.720024 0.872247 0.074005 
0.808598 0.881943 0.053204 
0.900742 0.880790 0.064645 
0.632015 0.876063 0.086080 
1.167903 0.881654 0.065516 
0.996052 0.874010 0.071236 
1.089844 0.882766 0.079155 
0.538669 0.883313 0.060640 
0.435633 0.872402 0.075368 
1.269628 0.863358 0.069289 
1.377529 0.862668 0.066413 
1.460716 0.874639 0.054925 
0.324534 0.879589 0.077258 
1.545352 0.857645 0.085856 
0.423298 0.579000 -0.014244 
0.341943 0.360370 -0.008594 
0.377542 0.782911 0.002405 
0.541106 0.709011 -0.010069 
0.540271 0.567346 -0.005591 
1.047984 0.851004 0.006885 
0.319431 0.700240 0.001302 
0.441173 0.457743 -0.011904 
0.309585 0.501583 0.017572 
0.250872 0.197883 0.010437 
0.622109 0.840417 0.020625 
0.243028 0.794974 -0.019138 
0.445017 0.674390 0.008177 
1.139216 0.855313 0.003628 
0.401458 0.221818 0.008924 
1.373337 0.837362 -0.011320 
0.516063 0.847019 0.002231 
0.515274 0.618324 -0.007745 
0.471928 0.343759 -0.026969 
0.598113 0.643758 -0.000247 
0.314553 0.603988 0.002913 
0.244993 0.367048 -0.013346 
0.752879 0.822693 -0.000938 
0.527191 0.455838 0.000170 
1.091800 0.786396 0.001458 
0.703561 0.541116 -0.032960 
0.895705 0.908630 -0.003102 
0.945029 0.795622 -0.015772 
0.855669 0.492801 -0.046446 
0.303447 0.889035 -0.007500 
0.242291 0.659800 0.016851 
0.467700 0.509693 -0.018068 
0.380697 0.505488 0.011052 
0.386962 0.879212 0.025272 
0.572959 0.562018 -0.004686 
1.034684 0.773211 -0.007887 
0.617789 0.748907 -0.021468 
0.993302 0.678295 -0.019362 
0.189148 0.113050 -0.013223 
0.175508 0.806344 -0.002694 
1.263810 0.797980 0.015391 
1.482122 0.788809 -0.021620 
0.182444 0.283986 -0.023859 
0.340751 0.128819 -0.030638 
0.389306 0.643643 0.007604 
0.953987 0.572133 -0.046822 
0.214042 0.436098 0.000311 
0.487331 0.743105 0.000106 
0.248801 0.733945 0.004094 
0.372044 0.439016 0.006195 
0.193628 0.906300 0.010340 
0.292993 0.292083 0.004309 
1.116455 0.929504 0.009835 
1.267110 0.882333 0.005480 
0.253242 0.569386 0.009337 
1.461927 0.914397 -0.017170 
0.589731 0.918981 -0.004527 
0.459845 0.149966 -0.002663 
0.382971 0.711495 0.011101 
0.480362 0.253437 -0.012577 
0.423641 0.074268 -0.006475 
0.308072 0.423934 0.004297 
0.691990 0.890242 0.016672 
0.607543 0.612087 -0.002069 
0.559909 0.492431 -0.010402 
0.527759 0.380325 0.009388 
0.561161 0.789552 -0.004230 
0.493066 0.562164 -0.019748 
0.681391 0.781390 0.005061 
[...]
POINT_DATA 749
SCALARS u float 1
LOOKUP_TABLE default
0.148359
0.049682
0.054841
0.058981
0.107447
0.037157
0.063451
0.091941
0.136804
0.053302
0.139139
0.106628
0.178651
0.019822
0.024135
0.065562
0.063604
0.041035
0.068595
0.068332
0.045635
0.081733
0.071620
0.034284
0.109306
0.092457
0.079829
0.055840
0.078743
0.098432
0.044944
0.027106
0.051022
0.065473
0.023000
0.037397
0.020691
0.071144
0.048904
0.051459
0.032818
0.039983
0.036534
0.069562
0.076453
0.091303
0.089916
0.087053
0.021293
0.029328
0.039546
0.074484
0.033710
0.028319
0.017915
0.089215
0.058990
0.055043
0.051478
0.071153
0.049066
0.093545
0.042434
0.055420
0.022520
0.019806
0.036158
0.039034
0.074688
0.110618
0.087820
0.101113
0.044994
0.063814
0.047538
0.080092
0.063197
0.022279
0.051061
0.103696
0.047141
0.020877
0.033072
0.033975
0.051788
0.076597
0.064751
0.051307
0.028473
0.060818
0.057248
0.100472
0.040234
0.063581
0.046057
0.041063
0.095905
0.045014
0.028052
0.041530
0.074117
0.021981
0.044328
0.074093
0.048943
0.074057
0.057360
0.020599
0.033370
0.071735
0.134175
0.100349
0.130251
0.158677
0.035415
0.056419
0.039464
0.085573
0.057420
0.036940
0.055424
0.036218
0.023677
0.037410
0.016655
0.034631
0.022617
0.051662
0.029263
0.013947
0.024178
0.009663
0.033502
0.025140
0.041752
0.051893
0.068096
0.058751
0.030682
0.061883
0.046403
0.036032
0.023754
0.046017
0.011519
0.067672
0.051836
0.031610
0.022816
0.029318
0.047434
0.033707
0.039289
0.026506
0.028559
0.008922
0.020158
0.019322
0.025938
0.029576
0.015290
0.025360
0.019883
0.044011
0.044280
0.012281
0.021678
0.035378
0.024001
0.057370
0.015662
0.063766
0.047969
0.024560
0.018006
0.026164
0.018513
0.050062
0.041662
0.015736
0.045413
0.011128
0.025829
0.011634
0.016562
0.013869
0.013850
0.031215
0.019680
0.011745
0.027259
0.016468
0.021766
0.024938
0.021065
0.036442
0.035114
0.020711
0.030803
0.031978
0.050975
0.042154
0.062739
0.050910
0.074356
0.063185
0.039373
0.023209
0.030232
0.046306
0.023080
0.015094
0.034105
0.049424
0.007650
0.023984
0.018216
0.035071
0.030757
0.009548
0.034593
0.020801
0.010026
0.028932
0.026639
0.018836
0.027429
0.029065
0.021210
0.050634
0.037957
0.017106
0.024836
0.033687
0.031118
0.023458
0.010042
0.035359
0.026135
0.012447
0.015273
0.031930
0.010557
0.041849
0.036553
0.036082
0.049277
0.034908
0.029914
0.061516
0.037453
0.027070
0.016951
0.008725
0.034104
0.026771
0.014786
0.006715
0.043165
0.019260
0.028425
0.030396
0.025196
0.037077
0.049423
0.031327
0.048173
0.013738
0.034565
0.018447
0.040400
0.034126
0.008104
0.031118
0.028778
0.017371
0.021532
0.027700
0.025541
0.018868
0.072177
0.043957
0.019418
0.022659
0.035242
0.025008
0.027898
0.039103
0.037934
0.048432
0.028299
0.042620
0.072178
0.059248
0.073309
0.032353
0.032301
0.020737
0.054991
0.055329
0.020701
0.032653
0.036851
0.037285
0.039728
0.025238
0.079868
0.017065
0.048047
0.123155
0.034877
0.068171
0.052780
0.028304
0.057986
0.063814
0.032588
0.047399
0.070005
0.041374
0.032870
0.042168
0.054037
0.048576
0.067564
0.020062
0.099217
0.027926
0.036001
0.061138
0.021755
0.031851
0.010635
0.050050
0.023717
0.027318
0.040500
0.041807
0.007764
0.033836
0.028331
0.038308
0.041729
0.043087
0.054555
0.067049
0.032012
0.022907
0.056740
0.038072
0.049991
0.005778
0.022575
0.047888
0.055877
0.057435
0.024150
0.054291
0.048427
0.049135
0.030371
0.047684
0.033287
0.030612
0.029600
0.029857
0.038736
0.057672
0.061241
0.007632
0.026461
0.030713
0.022364
0.029111
0.056828
0.023057
0.019529
0.041737
0.044420
0.025980
0.024383
0.046407
0.040529
0.129575
0.100735
0.051235
0.070868
0.084359
0.047346
0.020302
0.009516
0.013129
0.037218
0.017792
0.045381
0.015287
0.047646
0.026498
0.046417
0.021354
0.038453
0.030971
0.039103
0.041810
0.047912
0.033982
0.036887
0.055985
0.036479
0.039479
0.041345
0.025739
0.038953
0.044894
0.048628
0.068533
0.062906
0.082381
0.040509
0.030441
0.017880
0.079998
0.055155
0.033707
0.031845
0.045945
0.051117
0.041244
0.022965
0.107465
0.054481
0.039913
0.126454
0.027630
0.055301
0.061561
0.049181
0.033830
0.046817
0.031389
0.010845
0.086050
0.031875
0.032300
0.051629
0.043562
0.037413
0.069419
0.057505
0.074886
0.067640
0.054035
0.054979
0.042371
0.029131
0.039078
0.050115
0.033201
0.017219
0.044612
0.037836
0.036454
0.055410
0.027806
0.036123
0.045612
0.020750
0.059231
0.057853
0.064367
0.006390
0.085378
0.027937
0.042463
0.018670
0.033890
0.058913
0.035915
0.015356
0.025037
0.040063
0.054841
0.055177
0.043412
0.040169
0.042955
0.043418
0.009860
0.025327
0.030097
0.072547
0.035135
0.040013
0.013894
0.017166
0.046892
0.054956
0.031345
0.040234
0.030973
0.044710
0.016049
0.036514
0.020343
0.071041
0.038911
0.107718
0.097668
0.038571
0.047310
0.061663
0.038582
0.032309
0.036613
0.041017
0.023670
0.044205
0.043702
0.037981
0.048525
0.015341
0.041420
0.024480
0.030501
0.045412
0.033078
0.029741
0.013030
0.051501
0.051645
0.024979
0.056590
0.048922
0.035415
0.037067
0.051232
0.080511
0.014100
0.033489
0.025278
0.074928
0.009537
0.073682
0.034723
0.008903
0.031421
0.036443
0.041867
0.021633
0.030644
0.048852
0.028089
0.020038
0.068099
0.063974
0.022642
0.011683
0.027611
0.009387
0.021988
0.024591
0.031520
0.044002
0.049327
0.019735
0.008931
0.033631
0.018165
0.014035
0.053641
0.067396
0.025879
0.053928
0.046729
0.017700
0.033834
0.017211
0.027638
0.031647
0.026138
0.057632
0.019046
0.026998
0.020178
0.015752
0.033023
0.041827
0.041044
0.037434
0.046671
0.007987
0.052467
0.041638
0.012569
0.021489
0.065892
0.066433
0.027676
0.019310
0.041317
0.047222
0.045726
0.041087
0.031500
0.010877
0.044483
0.031393
0.049584
0.050196
0.029993
0.031151
0.055590
0.048725
0.032155
0.014980
0.037361
0.037555
0.016500
0.027524
0.013492
0.030023
0.021054
0.040595
0.045281
0.040501
0.015787
0.026275
0.038037
0.014333
0.005945
0.009659
0.024053
0.038501
0.024966
0.035259
0.031015
0.037812
0.032488
0.037164
0.040475
0.030541
0.039598
0.041212
0.024262
0.022303
0.021392
0.016064
0.008799
0.012297
0.027921
0.040308
0.032417
0.044359
0.025155
0.014836
0.046475
0.010265
0.026664
0.018097
0.018949
0.018003
0.020694
0.038193
0.033011
0.023622
0.033578
0.016920
0.051081
0.029264
0.017115
0.039145
0.027230
0.048513
0.023501
0.038598
0.013315
0.038917
0.033284
0.033228
0.008877
0.021476
0.015843
0.044553
0.014530
0.022223
0.046214
0.022574
0.050225
0.028046
0.013750
0.026832
0.025966
0.027098
0.024492
0.047842
0.032449
0.041608
0.026734
0.039599
0.009372
0.026612
0.024540
0.041179
0.011909
0.035666
0.042326
0.037164
0.025012
0.020094
0.037198
0.027370
0.033228
0.024461
0.025384
0.040077
0.032095
0.016951
0.025417
0.015398
0.025537
0.028232
0.015659
0.052796
0.035809
0.021272
0.060855
0.058929
0.025812
0.026265
0.024342
0.014583
0.041107
0.021112
0.026738
0.043363
0.013537
0.041079
0.020420
0.023361
0.054503
0.026982
0.054574
0.047252
0.033018
0.023314
0.051488
0.038865
0.013560
0.021973
