# vtk DataFile Version 2.0
Unstructured Grid Example
ASCII
DATASET UNSTRUCTURED_GRID
POINTS 749 float
0.012014 0.003364 -0.024585 
0.506312 -0.004946 -0.004575 
0.205324 0.697142 -0.008206 
0.701275 0.698962 0.010836 
0.091818 0.717116 -0.006228 
0.093430 1.001586 -0.001415 
1.602197 1.008481 0.007891 
1.606354 0.696442 0.015456 
0.903040 0.517270 0.014318 
0.995087 0.693536 0.005674 
0.659452 0.485444 0.013464 
0.669563 0.536791 0.007994 
0.890545 0.567815 0.026370 
1.048091 0.700286 0.003137 
0.004326 0.000476 0.181085 
0.490126 0.000516 0.172882 
0.196797 0.710840 0.183453 
0.698968 0.693383 0.183647 
0.106917 0.692185 0.187318 
0.109177 0.995037 0.187238 
1.605212 0.993371 0.180894 
1.593684 0.701985 0.193670 
0.918207 0.494712 0.168215 
0.998835 0.699804 0.173739 
0.637097 0.519329 0.182405 
0.655851 0.566640 0.175922 
0.901263 0.549239 0.165239 
1.047682 0.693543 0.172214 
1.591681 0.848207 0.123096 
1.609318 0.852302 0.029429 
1.600194 0.894509 0.081665 
1.598264 0.806991 0.085711 
0.295036 0.857303 0.138453 
0.308223 0.847979 0.053736 
0.301661 0.896796 0.093505 
0.299249 0.804966 0.096909 
0.122592 0.002993 0.000156 
0.249744 0.004126 -0.012558 
0.383619 0.001901 0.002164 
0.028448 0.090955 -0.008223 
0.050401 0.177799 -0.005404 
0.077198 0.267180 -0.005336 
0.102809 0.353604 -0.005021 
0.130099 0.446388 -0.007881 
0.156170 0.537043 -0.004330 
0.186196 0.618606 -0.011192 
0.143881 0.711049 -0.010940 
0.090804 0.851749 0.013194 
0.205480 1.001767 -0.003126 
0.313746 1.001380 0.005245 
0.421879 0.996162 -0.006251 
0.525609 0.993607 0.011914 
0.631193 1.000827 0.004256 
0.745218 0.999962 0.004703 
0.848866 0.997084 -0.001139 
0.959209 1.013576 0.009289 
1.058305 1.002682 0.008787 
1.170684 0.990710 0.004216 
1.270421 1.004924 0.000918 
1.385793 0.998845 -0.013172 
1.495932 0.992238 0.003666 
1.608055 0.851214 -0.015357 
0.844800 0.695427 -0.003773 
0.629226 0.418220 -0.000240 
0.598678 0.334216 -0.002214 
0.574758 0.251508 0.000433 
0.547023 0.169453 -0.006085 
0.525817 0.083172 -0.006968 
0.781324 0.500377 0.013666 
0.983502 0.584111 0.013004 
0.950557 0.613545 0.011611 
0.772219 0.558273 0.015629 
0.679535 0.622013 0.007750 
1.139385 0.711176 0.003244 
1.225536 0.696888 -0.002750 
1.315212 0.696260 -0.010570 
1.406500 0.702737 -0.005203 
1.507759 0.703994 0.000928 
0.129679 -0.002458 0.187880 
0.254450 -0.005434 0.162056 
0.367505 -0.003918 0.177716 
0.028791 0.088296 0.180212 
0.053153 0.178603 0.176147 
0.072730 0.260941 0.174319 
0.093138 0.345840 0.174687 
0.121000 0.427797 0.170384 
0.150474 0.513197 0.182292 
0.166669 0.613799 0.184452 
0.154825 0.698025 0.180902 
0.107270 0.846960 0.188101 
0.204414 0.993482 0.187953 
0.315184 0.988435 0.194630 
0.424228 1.002458 0.173517 
0.532588 1.011007 0.181518 
0.643992 1.000769 0.177965 
0.743017 1.006845 0.183368 
0.853103 1.009803 0.165443 
0.955007 0.992925 0.176081 
1.067014 1.004363 0.180833 
1.169870 1.007484 0.178940 
1.290332 0.995023 0.185159 
1.384839 0.996839 0.177566 
1.491151 1.005779 0.185617 
1.592480 0.849393 0.168482 
0.854873 0.701202 0.172415 
0.610751 0.424604 0.172414 
0.590890 0.339456 0.172435 
0.568866 0.252007 0.182014 
0.548424 0.169755 0.174683 
0.517529 0.087326 0.168940 
0.782182 0.502628 0.155419 
0.975091 0.609455 0.165736 
0.939684 0.635855 0.160984 
0.785698 0.556598 0.152158 
0.672243 0.626580 0.180877 
1.139104 0.690129 0.182432 
1.238317 0.703705 0.183901 
1.335437 0.711574 0.176839 
1.427254 0.699396 0.181179 
1.508022 0.693143 0.179974 
0.004049 -0.000627 0.080551 
0.497386 -0.002925 0.084531 
0.199066 0.698206 0.086092 
0.701780 0.700810 0.096671 
0.099326 0.698179 0.087590 
0.102523 1.003556 0.094733 
1.598630 0.999791 0.093968 
1.600617 0.703165 0.099043 
0.916059 0.495217 0.092360 
0.999756 0.701652 0.088018 
0.643475 0.501991 0.093980 
0.655435 0.550497 0.089755 
0.898997 0.550198 0.096141 
1.049596 0.703067 0.086499 
1.594056 0.817831 0.116846 
1.605542 0.820881 0.050765 
1.606972 0.883340 0.047729 
1.595701 0.878922 0.112212 
0.304443 0.882102 0.061742 
0.305399 0.814990 0.067820 
0.296263 0.824310 0.126597 
0.296729 0.887052 0.124419 
1.503934 0.852130 0.132844 
1.418170 0.850929 0.142561 
1.320370 0.848274 0.135695 
1.216742 0.852309 0.131412 
1.127763 0.852101 0.129985 
1.048459 0.848349 0.135630 
0.954207 0.849650 0.135390 
0.851695 0.850066 0.134949 
0.761906 0.847384 0.143074 
0.669059 0.848801 0.129327 
0.573796 0.853271 0.130550 
0.482981 0.847207 0.137998 
0.391821 0.850448 0.129814 
1.506740 0.895926 0.091315 
1.411667 0.896287 0.092349 
1.322030 0.895630 0.086517 
1.230061 0.896192 0.094427 
1.134123 0.893124 0.085085 
1.042432 0.892829 0.088217 
0.951785 0.891213 0.087836 
0.855340 0.891795 0.089642 
0.762938 0.893160 0.097854 
0.671762 0.892540 0.082155 
0.577140 0.893223 0.090021 
0.484030 0.894218 0.093575 
0.393528 0.894084 0.083524 
1.510923 0.849859 0.042637 
1.409344 0.851464 0.054333 
1.320843 0.852807 0.045499 
1.240296 0.848644 0.043952 
1.143464 0.847591 0.041312 
1.040319 0.849302 0.041272 
0.950861 0.847281 0.046750 
0.861443 0.847785 0.045494 
0.766497 0.851946 0.046778 
0.672371 0.853345 0.036371 
0.575206 0.845908 0.039355 
0.485514 0.848008 0.047132 
0.398468 0.853911 0.040056 
1.507477 0.804213 0.088117 
1.414635 0.803864 0.094650 
1.321235 0.803455 0.088500 
1.230764 0.802947 0.090669 
1.137809 0.806344 0.090669 
1.044975 0.806373 0.090502 
0.951480 0.807768 0.094878 
0.855882 0.807580 0.087736 
0.765662 0.805645 0.088434 
0.673139 0.809361 0.088072 
0.576502 0.806799 0.088642 
0.485190 0.803879 0.093851 
0.392221 0.809224 0.088202 
1.599084 0.949611 0.127214 
1.595336 0.748436 0.135220 
1.603720 0.750732 0.054400 
1.603448 0.952967 0.050380 
1.604996 0.785086 0.017301 
1.594113 0.784182 0.159220 
1.606421 0.917116 0.012744 
1.597238 0.912545 0.153264 
1.607007 0.821238 0.023466 
1.592874 0.818601 0.141275 
1.607643 0.882618 0.020248 
1.594535 0.878340 0.137432 
1.597931 0.909810 0.114695 
1.595781 0.787967 0.120567 
1.603865 0.789853 0.055477 
1.605188 0.912933 0.049401 
1.599041 0.762199 0.092906 
1.601255 0.939755 0.086750 
0.340311 0.837219 0.119561 
1.548820 0.832321 0.111543 
0.719014 0.826853 0.113014 
0.807042 0.826092 0.114596 
0.903109 0.830733 0.113391 
0.622126 0.829848 0.107142 
1.176676 0.827386 0.110836 
0.439081 0.825745 0.112665 
1.002159 0.826995 0.115369 
0.528875 0.825901 0.113806 
1.088338 0.826584 0.111183 
1.270374 0.828964 0.110184 
1.371488 0.826705 0.115770 
1.461521 0.826441 0.115737 
0.331358 0.820464 0.105425 
1.563678 0.817380 0.097626 
0.341526 0.869794 0.116934 
1.550104 0.867107 0.110097 
0.806817 0.872316 0.118376 
0.716964 0.869479 0.112076 
0.903207 0.868587 0.110080 
0.624990 0.871736 0.106287 
1.000464 0.868631 0.111023 
0.528207 0.873668 0.113965 
0.439357 0.871593 0.110871 
1.176553 0.874873 0.109991 
1.087388 0.872856 0.108044 
1.273805 0.870596 0.111954 
1.368933 0.871137 0.114745 
1.459073 0.876145 0.116885 
0.332155 0.884412 0.102396 
1.563845 0.881593 0.094988 
0.301242 0.852256 0.096421 
0.299389 0.834317 0.103715 
0.304300 0.842503 0.080238 
0.298699 0.861281 0.112757 
0.302316 0.869700 0.088030 
1.562208 0.834448 0.053095 
0.348414 0.823182 0.078376 
0.720881 0.830577 0.064913 
0.812960 0.829159 0.066041 
0.904549 0.826993 0.068690 
0.624888 0.829339 0.061436 
1.091735 0.831403 0.065626 
0.529774 0.826141 0.067198 
0.996363 0.827582 0.068743 
1.190163 0.827651 0.067509 
0.440153 0.830972 0.067464 
1.278862 0.824324 0.065798 
1.363889 0.827604 0.071519 
1.460368 0.828742 0.072001 
1.568507 0.818378 0.071358 
0.340062 0.838336 0.063371 
0.350065 0.868665 0.062003 
1.561084 0.879519 0.065918 
0.717051 0.872594 0.065079 
0.811502 0.868986 0.072819 
0.904624 0.869415 0.068562 
0.622390 0.871174 0.060587 
1.187441 0.869094 0.068238 
0.996569 0.871938 0.066110 
1.089078 0.868680 0.063163 
0.529715 0.868477 0.070052 
0.440645 0.872537 0.064572 
1.276999 0.875902 0.066834 
1.364259 0.876159 0.067904 
1.460713 0.871704 0.072179 
0.336622 0.884098 0.078105 
1.574583 0.863792 0.046434 
0.418195 0.601346 0.005300 
0.347726 0.362513 0.003198 
0.383036 0.797053 -0.000895 
0.524517 0.719837 0.003746 
0.539323 0.552051 0.002080 
1.031667 0.847843 -0.002562 
0.323743 0.673854 -0.000485 
0.437914 0.477701 0.004429 
0.288989 0.491787 -0.006538 
0.246443 0.185580 -0.003883 
0.618434 0.834200 -0.007674 
0.274459 0.767245 0.007121 
0.425893 0.708401 -0.003043 
1.187976 0.844295 -0.001350 
0.403523 0.203452 -0.003320 
1.364185 0.850205 0.004212 
0.507761 0.835899 -0.000830 
0.488680 0.642817 0.002882 
0.479789 0.341211 0.010035 
0.590144 0.632027 0.000092 
0.314796 0.581973 -0.001084 
0.229826 0.358543 0.004966 
0.774600 0.836086 0.000349 
0.554134 0.459734 -0.000063 
1.102310 0.799985 -0.000542 
0.728233 0.522634 0.012264 
0.905968 0.904984 0.001154 
0.933262 0.773776 0.005869 
0.828316 0.540894 0.017282 
0.324857 0.886402 0.002791 
0.270860 0.630963 -0.006270 
0.462694 0.535548 0.006723 
0.371450 0.513280 -0.004112 
0.403691 0.889045 -0.009403 
0.604503 0.532422 0.001744 
1.016060 0.767318 0.002935 
0.631282 0.746615 0.007988 
0.990322 0.638462 0.007204 
0.169174 0.104350 0.004920 
0.194426 0.794691 0.001002 
1.281165 0.788606 -0.005727 
1.460506 0.793705 0.008044 
0.176895 0.281627 0.008878 
0.345458 0.109996 0.011400 
0.383012 0.650009 -0.002829 
0.931734 0.571629 0.017422 
0.210971 0.454982 -0.000116 
0.474155 0.763961 -0.000039 
0.271330 0.699071 -0.001523 
0.359834 0.439975 -0.002305 
0.201782 0.891856 -0.003847 
0.288830 0.291170 -0.001603 
1.096028 0.905483 -0.003659 
1.272487 0.895701 -0.002039 
0.264217 0.561270 -0.003474 
1.457846 0.900306 0.006389 
0.565607 0.904831 0.001684 
0.457720 0.146735 0.000991 
0.371372 0.724574 -0.004131 
0.485092 0.245905 0.004680 
0.446183 0.064166 0.002409 
0.283811 0.409993 -0.001599 
0.691525 0.908904 -0.006203 
0.623995 0.578637 0.000770 
0.602751 0.483948 0.003871 
0.545242 0.383427 -0.003493 
0.553554 0.777108 0.001574 
0.476726 0.584761 0.007348 
0.702121 0.795627 -0.001883 
0.423094 0.388950 0.008976 
[...]
POINT_DATA 749
SCALARS u float 1
LOOKUP_TABLE default
0.148359
0.049682
0.054841
0.058981
0.107447
0.037157
0.063451
0.091941
0.136804
0.053302
0.139139
0.106628
0.178651
0.019822
0.024135
0.065562
0.063604
0.041035
0.068595
0.068332
0.045635
0.081733
0.071620
0.034284
0.109306
0.092457
0.079829
0.055840
0.078743
0.098432
0.044944
0.027106
0.051022
0.065473
0.023000
0.037397
0.020691
0.071144
0.048904
0.051459
0.032818
0.039983
0.036534
0.069562
0.076453
0.091303
0.089916
0.087053
0.021293
0.029328
0.039546
0.074484
0.033710
0.028319
0.017915
0.089215
0.058990
0.055043
0.051478
0.071153
0.049066
0.093545
0.042434
0.055420
0.022520
0.019806
0.036158
0.039034
0.074688
0.110618
0.087820
0.101113
0.044994
0.063814
0.047538
0.080092
0.063197
0.022279
0.051061
0.103696
0.047141
0.020877
0.033072
0.033975
0.051788
0.076597
0.064751
0.051307
0.028473
0.060818
0.057248
0.100472
0.040234
0.063581
0.046057
0.041063
0.095905
0.045014
0.028052
0.041530
0.074117
0.021981
0.044328
0.074093
0.048943
0.074057
0.057360
0.020599
0.033370
0.071735
0.134175
0.100349
0.130251
0.158677
0.035415
0.056419
0.039464
0.085573
0.057420
0.036940
0.055424
0.036218
0.023677
0.037410
0.016655
0.034631
0.022617
0.051662
0.029263
0.013947
0.024178
0.009663
0.033502
0.025140
0.041752
0.051893
0.068096
0.058751
0.030682
0.061883
0.046403
0.036032
0.023754
0.046017
0.011519
0.067672
0.051836
0.031610
0.022816
0.029318
0.047434
0.033707
0.039289
0.026506
0.028559
0.008922
0.020158
0.019322
0.025938
0.029576
0.015290
0.025360
0.019883
0.044011
0.044280
0.012281
0.021678
0.035378
0.024001
0.057370
0.015662
0.063766
0.047969
0.024560
0.018006
0.026164
0.018513
0.050062
0.041662
0.015736
0.045413
0.011128
0.025829
0.011634
0.016562
0.013869
0.013850
0.031215
0.019680
0.011745
0.027259
0.016468
0.021766
0.024938
0.021065
0.036442
0.035114
0.020711
0.030803
0.031978
0.050975
0.042154
0.062739
0.050910
0.074356
0.063185
0.039373
0.023209
0.030232
0.046306
0.023080
0.015094
0.034105
0.049424
0.007650
0.023984
0.018216
0.035071
0.030757
0.009548
0.034593
0.020801
0.010026
0.028932
0.026639
0.018836
0.027429
0.029065
0.021210
0.050634
0.037957
0.017106
0.024836
0.033687
0.031118
0.023458
0.010042
0.035359
0.026135
0.012447
0.015273
0.031930
0.010557
0.041849
0.036553
0.036082
0.049277
0.034908
0.029914
0.061516
0.037453
0.027070
0.016951
0.008725
0.034104
0.026771
0.014786
0.006715
0.043165
0.019260
0.028425
0.030396
0.025196
0.037077
0.049423
0.031327
0.048173
0.013738
0.034565
0.018447
0.040400
0.034126
0.008104
0.031118
0.028778
0.017371
0.021532
0.027700
0.025541
0.018868
0.072177
0.043957
0.019418
0.022659
0.035242
0.025008
0.027898
0.039103
0.037934
0.048432
0.028299
0.042620
0.072178
0.059248
0.073309
0.032353
0.032301
0.020737
0.054991
0.055329
0.020701
0.032653
0.036851
0.037285
0.039728
0.025238
0.079868
0.017065
0.048047
0.123155
0.034877
0.068171
0.052780
0.028304
0.057986
0.063814
0.032588
0.047399
0.070005
0.041374
0.032870
0.042168
0.054037
0.048576
0.067564
0.020062
0.099217
0.027926
0.036001
0.061138
0.021755
0.031851
0.010635
0.050050
0.023717
0.027318
0.040500
0.041807
0.007764
0.033836
0.028331
0.038308
0.041729
0.043087
0.054555
0.067049
0.032012
0.022907
0.056740
0.038072
0.049991
0.005778
0.022575
0.047888
0.055877
0.057435
0.024150
0.054291
0.048427
0.049135
0.030371
0.047684
0.033287
0.030612
0.029600
0.029857
0.038736
0.057672
0.061241
0.007632
0.026461
0.030713
0.022364
0.029111
0.056828
0.023057
0.019529
0.041737
0.044420
0.025980
0.024383
0.046407
0.040529
0.129575
0.100735
0.051235
0.070868
0.084359
0.047346
0.020302
0.009516
0.013129
0.037218
0.017792
0.045381
0.015287
0.047646
0.026498
0.046417
0.021354
0.038453
0.030971
0.039103
0.041810
0.047912
0.033982
0.036887
0.055985
0.036479
0.039479
0.041345
0.025739
0.038953
0.044894
0.048628
0.068533
0.062906
0.082381
0.040509
0.030441
0.017880
0.079998
0.055155
0.033707
0.031845
0.045945
0.051117
0.041244
0.022965
0.107465
0.054481
0.039913
0.126454
0.027630
0.055301
0.061561
0.049181
0.033830
0.046817
0.031389
0.010845
0.086050
0.031875
0.032300
0.051629
0.043562
0.037413
0.069419
0.057505
0.074886
0.067640
0.054035
0.054979
0.042371
0.029131
0.039078
0.050115
0.033201
0.017219
0.044612
0.037836
0.036454
0.055410
0.027806
0.036123
0.045612
0.020750
0.059231
0.057853
0.064367
0.006390
0.085378
0.027937
0.042463
0.018670
0.033890
0.058913
0.035915
0.015356
0.025037
0.040063
0.054841
0.055177
0.043412
0.040169
0.042955
0.043418
0.009860
0.025327
0.030097
0.072547
0.035135
0.040013
0.013894
0.017166
0.046892
0.054956
0.031345
0.040234
0.030973
0.044710
0.016049
0.036514
0.020343
0.071041
0.038911
0.107718
0.097668
0.038571
0.047310
0.061663
0.038582
0.032309
0.036613
0.041017
0.023670
0.044205
0.043702
0.037981
0.048525
0.015341
0.041420
0.024480
0.030501
0.045412
0.033078
0.029741
0.013030
0.051501
0.051645
0.024979
0.056590
0.048922
0.035415
0.037067
0.051232
0.080511
0.014100
0.033489
0.025278
0.074928
0.009537
0.073682
0.034723
0.008903
0.031421
0.036443
0.041867
0.021633
0.030644
0.048852
0.028089
0.020038
0.068099
0.063974
0.022642
0.011683
0.027611
0.009387
0.021988
0.024591
0.031520
0.044002
0.049327
0.019735
0.008931
0.033631
0.018165
0.014035
0.053641
0.067396
0.025879
0.053928
0.046729
0.017700
0.033834
0.017211
0.027638
0.031647
0.026138
0.057632
0.019046
0.026998
0.020178
0.015752
0.033023
0.041827
0.041044
0.037434
0.046671
0.007987
0.052467
0.041638
0.012569
0.021489
0.065892
0.066433
0.027676
0.019310
0.041317
0.047222
0.045726
0.041087
0.031500
0.010877
0.044483
0.031393
0.049584
0.050196
0.029993
0.031151
0.055590
0.048725
0.032155
0.014980
0.037361
0.037555
0.016500
0.027524
0.013492
0.030023
0.021054
0.040595
0.045281
0.040501
0.015787
0.026275
0.038037
0.014333
0.005945
0.009659
0.024053
0.038501
0.024966
0.035259
0.031015
0.037812
0.032488
0.037164
0.040475
0.030541
0.039598
0.041212
0.024262
0.022303
0.021392
0.016064
0.008799
0.012297
0.027921
0.040308
0.032417
0.044359
0.025155
0.014836
0.046475
0.010265
0.026664
0.018097
0.018949
0.018003
0.020694
0.038193
0.033011
0.023622
0.033578
0.016920
0.051081
0.029264
0.017115
0.039145
0.027230
0.048513
0.023501
0.038598
0.013315
0.038917
0.033284
0.033228
0.008877
0.021476
0.015843
0.044553
0.014530
0.022223
0.046214
0.022574
0.050225
0.028046
0.013750
0.026832
0.025966
0.027098
0.024492
0.047842
0.032449
0.041608
0.026734
0.039599
0.009372
0.026612
0.024540
0.041179
0.011909
0.035666
0.042326
0.037164
0.025012
0.020094
0.037198
0.027370
0.033228
0.024461
0.025384
0.040077
0.032095
0.016951
0.025417
0.015398
0.025537
0.028232
0.015659
0.052796
0.035809
0.021272
0.060855
0.058929
0.025812
0.026265
0.024342
0.014583
0.041107
0.021112
0.026738
0.043363
0.013537
0.041079
0.020420
0.023361
0.054503
0.026982
0.054574
0.047252
0.033018
0.023314
0.051488
0.038865
0.013560
0.021973
