# vtk DataFile Version 2.0
Unstructured Grid Example
ASCII
DATASET UNSTRUCTURED_GRID
POINTS 1221 float
-0.000548 0.000057 0.004438 
0.997153 -0.000938 -0.009729 
0.999877 1.000091 -0.002536 
-0.001830 0.998942 0.003086 
0.001653 -0.000448 0.054437 
0.999947 -0.001748 0.040281 
1.001050 0.999710 0.047466 
-0.000756 0.998635 0.053086 
0.001568 0.049549 0.054911 
0.001483 0.099574 0.055373 
0.001407 0.149627 0.055769 
0.001314 0.199658 0.056034 
0.001219 0.249724 0.056221 
0.001166 0.299705 0.056363 
0.001170 0.349668 0.056570 
0.001217 0.399678 0.056738 
0.001181 0.449688 0.056648 
0.001114 0.499671 0.056302 
0.001019 0.549650 0.055703 
0.000912 0.599620 0.054925 
0.000684 0.649519 0.053961 
0.000444 0.699338 0.053140 
0.000193 0.749112 0.052547 
-0.000000 0.798946 0.052311 
-0.000263 0.848781 0.052194 
-0.000429 0.898696 0.052431 
-0.000585 0.948642 0.052757 
-0.000564 0.050049 0.004902 
-0.000648 0.100045 0.005369 
-0.000653 0.150022 0.005774 
-0.000628 0.199971 0.006028 
-0.000550 0.249877 0.006199 
-0.000546 0.299855 0.006360 
-0.000555 0.349817 0.006559 
-0.000631 0.399665 0.006698 
-0.000670 0.449457 0.006609 
-0.000738 0.499274 0.006264 
-0.000772 0.549091 0.005670 
-0.000881 0.598938 0.004908 
-0.000877 0.648813 0.003958 
-0.000985 0.698796 0.003118 
-0.001061 0.748844 0.002569 
-0.001151 0.798911 0.002253 
-0.001249 0.848939 0.002219 
-0.001440 0.898962 0.002424 
-0.001646 0.948949 0.002753 
0.000552 -0.000197 0.029430 
-0.001291 0.998789 0.028081 
0.051628 -0.000401 0.052206 
0.101591 -0.000304 0.049932 
0.151379 -0.000274 0.047953 
0.201035 -0.000072 0.046435 
0.250808 -0.000025 0.045267 
0.300324 -0.000002 0.044707 
0.349862 0.000100 0.044747 
0.399322 0.000145 0.045878 
0.448985 0.000204 0.047524 
0.498747 0.000219 0.049525 
0.548604 0.000243 0.051596 
0.598615 0.000176 0.053443 
0.648873 0.000117 0.054594 
0.699262 -0.000170 0.054793 
0.749676 -0.000354 0.053821 
0.799945 -0.000618 0.051736 
0.849971 -0.000829 0.049063 
0.899964 -0.001152 0.046156 
0.949943 -0.001465 0.043151 
0.049443 0.000118 0.002185 
0.099488 0.000229 -0.000061 
0.149764 0.000301 -0.002052 
0.199943 0.000360 -0.003590 
0.249941 0.000436 -0.004752 
0.300111 0.000481 -0.005378 
0.350392 0.000586 -0.005207 
0.400659 0.000558 -0.004222 
0.450687 0.000508 -0.002507 
0.500582 0.000453 -0.000537 
0.550314 0.000360 0.001545 
0.599958 0.000212 0.003352 
0.649447 0.000022 0.004591 
0.698947 -0.000096 0.004751 
0.748260 -0.000239 0.003755 
0.797687 -0.000242 0.001656 
0.847376 -0.000365 -0.000943 
0.897214 -0.000548 -0.003863 
0.947138 -0.000708 -0.006826 
0.998549 -0.001340 0.015295 
1.000135 0.048285 0.041179 
1.000245 0.098296 0.042190 
1.000401 0.148360 0.043087 
1.000601 0.198447 0.044048 
1.000769 0.248596 0.044918 
1.000814 0.298865 0.045523 
1.000874 0.349039 0.046062 
1.000925 0.399275 0.046310 
1.000951 0.449488 0.046339 
1.000955 0.499623 0.046195 
1.000972 0.549725 0.046026 
1.000903 0.599748 0.045931 
1.000831 0.649780 0.046008 
1.000794 0.699761 0.046024 
1.000865 0.749766 0.046042 
1.000883 0.799766 0.046160 
1.000910 0.849732 0.046422 
1.000940 0.899726 0.046757 
1.001004 0.949711 0.047103 
0.997444 0.049076 -0.008785 
0.997716 0.099148 -0.007802 
0.998057 0.149138 -0.006844 
0.998272 0.199245 -0.005931 
0.998481 0.249292 -0.005051 
0.998764 0.299254 -0.004429 
0.998977 0.349280 -0.003869 
0.999152 0.399301 -0.003646 
0.999303 0.449313 -0.003643 
0.999450 0.499385 -0.003775 
0.999524 0.549470 -0.003946 
0.999623 0.599606 -0.004031 
0.999793 0.649737 -0.003983 
0.999821 0.699823 -0.003980 
0.999794 0.749901 -0.003950 
0.999803 0.799980 -0.003817 
0.999820 0.850058 -0.003579 
0.999838 0.900086 -0.003240 
0.999846 0.950090 -0.002896 
1.000464 0.999901 0.022470 
0.951036 0.999742 0.048655 
0.901006 0.999783 0.049873 
0.850925 0.999833 0.051022 
0.800831 0.999889 0.052097 
0.750699 0.999941 0.053063 
0.700443 1.000041 0.053723 
0.650252 1.000077 0.054129 
0.599733 0.999997 0.054066 
0.549476 1.000027 0.053384 
0.499260 1.000018 0.052424 
0.449081 0.999960 0.051366 
0.398930 0.999913 0.050270 
0.348917 0.999836 0.049341 
0.299069 0.999665 0.048801 
0.249171 0.999553 0.048741 
0.199226 0.999402 0.049195 
0.149230 0.999214 0.049911 
0.099242 0.999021 0.050899 
0.049254 0.998818 0.051983 
0.949879 1.000132 -0.001334 
0.899856 1.000183 -0.000118 
0.849909 1.000240 0.001035 
0.799858 1.000313 0.002120 
0.749879 1.000385 0.003086 
0.699950 1.000443 0.003764 
0.649955 1.000504 0.004192 
0.600206 1.000616 0.004076 
0.550229 1.000582 0.003415 
0.500148 1.000543 0.002479 
0.449942 1.000482 0.001420 
0.399780 1.000350 0.000310 
0.349550 1.000196 -0.000639 
0.299222 1.000057 -0.001184 
0.248855 0.999867 -0.001216 
0.198561 0.999669 -0.000813 
0.148397 0.999494 -0.000065 
0.098248 0.999293 0.000900 
0.048191 0.999109 0.001988 
0.022887 0.998908 0.021441 
0.018724 0.998795 0.038068 
0.976016 0.999966 0.016934 
0.980913 0.999836 0.033354 
0.481316 1.000268 0.027065 
0.775322 1.000139 0.027619 
0.675137 1.000260 0.028996 
0.525533 1.000297 0.027977 
0.725251 1.000198 0.028478 
0.624985 1.000291 0.029263 
0.073730 0.999059 0.026431 
0.223934 0.999647 0.023901 
0.574996 1.000294 0.028786 
0.173856 0.999443 0.024525 
0.123772 0.999253 0.025385 
0.875410 1.000015 0.025471 
0.825377 1.000070 0.026579 
0.374310 1.000064 0.024789 
0.918766 0.999965 0.024427 
0.274067 0.999794 0.023693 
0.324193 0.999930 0.024004 
0.424449 1.000184 0.025833 
0.499761 0.500520 0.048861 
0.292895 0.295159 0.046757 
0.708107 0.705408 0.051569 
0.708734 0.290872 0.054809 
0.291041 0.709230 0.046656 
0.501090 0.781639 0.050055 
0.785106 0.498216 0.052394 
0.498864 0.223744 0.049984 
0.225180 0.502776 0.047868 
0.169261 0.170581 0.048910 
0.831259 0.169031 0.051897 
0.831081 0.830917 0.050002 
0.168835 0.829746 0.048465 
0.563518 0.641075 0.050571 
0.436134 0.359914 0.047578 
0.642328 0.438094 0.053029 
0.353573 0.567297 0.046357 
0.639941 0.846953 0.052477 
0.360671 0.154114 0.046178 
0.152470 0.360480 0.050739 
0.847578 0.359867 0.052206 
0.847117 0.641349 0.049711 
0.640786 0.153816 0.054227 
0.357920 0.846320 0.048045 
0.154392 0.634648 0.049023 
0.678719 0.581813 0.052260 
0.560255 0.331360 0.051658 
0.439016 0.669550 0.047800 
0.322590 0.420582 0.046316 
0.533397 0.882128 0.051719 
0.464521 0.118289 0.048710 
0.883218 0.465490 0.050214 
0.121071 0.465521 0.051863 
0.744879 0.896593 0.052148 
0.109059 0.258141 0.052005 
0.259254 0.097886 0.046010 
0.897289 0.254838 0.049784 
0.890411 0.736937 0.048437 
0.736933 0.110126 0.054745 
0.262487 0.889314 0.047863 
0.110530 0.737963 0.049471 
0.601179 0.740396 0.051425 
0.398791 0.260447 0.047010 
0.745650 0.404853 0.054067 
0.252208 0.597898 0.046871 
0.598222 0.521365 0.051516 
0.398330 0.475410 0.046622 
0.611302 0.254354 0.053503 
0.387687 0.745985 0.047350 
0.098918 0.094525 0.051066 
0.902505 0.093741 0.047280 
0.906038 0.902190 0.048968 
0.098096 0.904495 0.050372 
0.436196 0.903122 0.050081 
0.903972 0.563055 0.048780 
0.562173 0.097218 0.052269 
0.097940 0.562982 0.051862 
0.259311 0.202419 0.046877 
0.742352 0.797407 0.051333 
0.797543 0.257831 0.053758 
0.208913 0.745111 0.047536 
0.196908 0.278951 0.048816 
0.798775 0.716250 0.050364 
0.714348 0.206603 0.055133 
0.285023 0.793183 0.047090 
0.501764 0.412477 0.049224 
0.497085 0.588775 0.048887 
0.241706 0.365507 0.047732 
0.759702 0.634630 0.051298 
0.689780 0.501102 0.052903 
0.645722 0.345709 0.053806 
0.309118 0.505109 0.046444 
0.354109 0.654846 0.046433 
0.081517 0.183094 0.052696 
0.178191 0.084181 0.047837 
0.818329 0.919055 0.051036 
0.919688 0.181270 0.047706 
0.918030 0.820766 0.048111 
0.821078 0.082097 0.051366 
0.080785 0.816745 0.050286 
0.184827 0.913624 0.048781 
0.652036 0.655776 0.051756 
0.348339 0.344911 0.046382 
0.513765 0.696848 0.049650 
0.485527 0.304057 0.049315 
0.609958 0.917273 0.053209 
0.389083 0.083348 0.046294 
0.079603 0.394421 0.053754 
0.918019 0.389406 0.049411 
0.925612 0.660338 0.047719 
0.659917 0.075104 0.054693 
0.339060 0.924850 0.048565 
0.075070 0.661021 0.051344 
0.430724 0.821858 0.049043 
0.821726 0.566018 0.050871 
0.567855 0.178325 0.052408 
0.180562 0.566937 0.048827 
0.191393 0.431497 0.049217 
0.573478 0.818557 0.051658 
0.426324 0.179367 0.047598 
0.822413 0.426913 0.052464 
0.565136 0.458140 0.050936 
0.435197 0.542535 0.047285 
0.774577 0.331203 0.054339 
0.225915 0.668171 0.047209 
0.667918 0.781533 0.051813 
0.333750 0.218674 0.046266 
0.677525 0.930427 0.053281 
0.069686 0.317669 0.053854 
0.323230 0.069808 0.045237 
0.931205 0.321845 0.048770 
0.746276 0.559825 0.052086 
0.447469 0.736613 0.048480 
0.551375 0.263854 0.051679 
0.614137 0.595278 0.051545 
0.385890 0.406382 0.046569 
0.259395 0.443417 0.047284 
0.585061 0.393430 0.051980 
0.414352 0.607445 0.047051 
0.450508 0.428527 0.047747 
0.548467 0.572646 0.050187 
0.484177 0.934768 0.051415 
0.935665 0.515019 0.048139 
0.514107 0.065639 0.050352 
0.066394 0.515022 0.053663 
0.499848 0.838633 0.050599 
0.838841 0.507341 0.051121 
0.499632 0.152660 0.050063 
0.154660 0.501177 0.050304 
0.697110 0.842979 0.052173 
0.304336 0.157037 0.045902 
0.843005 0.302401 0.052356 
0.149644 0.701754 0.048650 
0.160672 0.231159 0.049718 
0.842718 0.773161 0.049500 
0.773134 0.157756 0.053929 
0.226468 0.841562 0.047753 
0.669680 0.238364 0.054663 
0.329696 0.761754 0.046906 
0.696972 0.355977 0.054482 
0.303365 0.644391 0.046344 
0.940501 0.606389 0.047509 
0.605398 0.060572 0.053697 
0.392928 0.939634 0.049579 
0.061220 0.606280 0.052642 
0.700294 0.433656 0.053877 
0.304286 0.558799 0.046400 
0.055933 0.053732 0.052561 
0.945727 0.052686 0.044233 
0.946859 0.945339 0.048344 
0.053953 0.944772 0.051543 
0.773412 0.945946 0.052174 
0.056807 0.232106 0.054028 
0.227668 0.054240 0.046287 
0.946021 0.771441 0.047271 
0.771483 0.054392 0.053400 
0.228285 0.944408 0.048445 
0.947234 0.225865 0.047039 
0.055093 0.770854 0.050907 
0.220694 0.160196 0.047288 
0.775999 0.847471 0.051196 
0.847701 0.224130 0.051687 
0.155683 0.774167 0.048440 
0.552838 0.947885 0.052857 
[...]
POINT_DATA 1221
SCALARS u float 1
LOOKUP_TABLE default
0.082723
0.188295
0.046984
0.069183
0.087965
0.182664
0.051015
0.063963
0.095716
0.103401
0.110043
0.114403
0.117367
0.119777
0.123593
0.126783
0.125015
0.118535
0.107350
0.092912
0.074890
0.059921
0.050013
0.046984
0.046674
0.051644
0.057871
0.091265
0.100031
0.107477
0.112108
0.115141
0.118110
0.121797
0.124598
0.123281
0.117435
0.107169
0.094305
0.078138
0.064444
0.055678
0.050945
0.051026
0.055569
0.062428
0.082648
0.065716
0.051253
0.029994
0.045934
0.068674
0.088806
0.098082
0.097221
0.077317
0.049648
0.025109
0.039467
0.068721
0.087514
0.089756
0.071236
0.034100
0.023143
0.074236
0.129561
0.041767
0.010430
0.038603
0.066750
0.088275
0.099897
0.097186
0.079699
0.048983
0.016862
0.029906
0.062136
0.085528
0.090034
0.076681
0.052810
0.052017
0.088667
0.137535
0.183185
0.166236
0.147930
0.131625
0.114312
0.098558
0.086755
0.076701
0.071633
0.070597
0.072889
0.075845
0.077230
0.075539
0.075128
0.075071
0.073013
0.068475
0.062655
0.056967
0.170093
0.151187
0.132550
0.115118
0.098435
0.086171
0.075209
0.070445
0.069771
0.071475
0.074174
0.075239
0.073932
0.073770
0.073186
0.070696
0.066283
0.060022
0.053663
0.047614
0.031760
0.019182
0.025683
0.041783
0.058131
0.069351
0.076532
0.075375
0.063333
0.046881
0.030472
0.020466
0.023645
0.028755
0.029088
0.023431
0.020415
0.028306
0.044878
0.024896
0.004826
0.019729
0.039727
0.057568
0.070110
0.078104
0.076338
0.064218
0.047028
0.027752
0.009555
0.014911
0.026225
0.030994
0.031172
0.031118
0.038711
0.052377
0.057658
0.057370
0.036648
0.040438
0.039061
0.048873
0.074120
0.055466
0.064604
0.079033
0.039444
0.029060
0.070253
0.025131
0.027516
0.011546
0.030052
0.013400
0.013284
0.029939
0.023754
0.018783
0.023583
0.061053
0.030771
0.089194
0.061885
0.006625
0.046052
0.014923
0.042960
0.027975
0.037417
0.014184
0.030472
0.013702
0.046051
0.056775
0.067648
0.045966
0.071031
0.025604
0.043879
0.015737
0.079458
0.037616
0.021602
0.043051
0.033190
0.041648
0.070040
0.032578
0.028299
0.017883
0.040668
0.041099
0.042499
0.074704
0.020907
0.032308
0.087903
0.040947
0.014971
0.027464
0.056135
0.075711
0.058734
0.029393
0.063199
0.065780
0.049655
0.031768
0.053975
0.024827
0.020479
0.012068
0.027998
0.046090
0.039427
0.059002
0.026539
0.070069
0.046080
0.025551
0.013007
0.095103
0.054300
0.018515
0.022307
0.044964
0.026402
0.054305
0.070926
0.066197
0.066094
0.055333
0.045304
0.023602
0.048378
0.038318
0.028395
0.016550
0.026634
0.033124
0.067370
0.009920
0.018697
0.059550
0.069220
0.073065
0.022058
0.043959
0.087477
0.029537
0.028468
0.019818
0.021248
0.047167
0.028458
0.023115
0.031263
0.045475
0.047749
0.021298
0.050905
0.080447
0.052278
0.034790
0.069763
0.060810
0.074440
0.088651
0.031672
0.040255
0.029198
0.034338
0.029670
0.064033
0.052444
0.038567
0.055054
0.042621
0.009466
0.028483
0.039042
0.022426
0.070754
0.012895
0.026541
0.015285
0.021305
0.041028
0.076324
0.045906
0.026590
0.020621
0.016827
0.072879
0.042679
0.086483
0.057523
0.083040
0.067834
0.048938
0.071531
0.017747
0.052031
0.072007
0.067081
0.055451
0.109905
0.035747
0.037077
0.042085
0.077609
0.070229
0.053000
0.063462
0.032614
0.060672
0.022292
0.051844
0.025630
0.033176
0.030600
0.053280
0.039261
0.044439
0.087234
0.022103
0.016469
0.095005
0.045246
0.013064
0.029799
0.021063
0.014691
0.029420
0.023318
0.056596
0.061999
0.034839
0.032821
0.065935
0.068502
0.029509
0.086638
0.016312
0.030290
0.046300
0.029429
0.019570
0.048575
0.068641
0.047971
0.042330
0.058376
0.056074
0.063229
0.043796
0.054813
0.027345
0.049669
0.022982
0.090852
0.055789
0.045311
0.022869
0.035218
0.062584
0.068483
0.054311
0.088419
0.029749
0.034208
0.025723
0.017118
0.022154
0.020557
0.038330
0.069170
0.045205
0.066413
0.038605
0.016682
0.062454
0.042105
0.079756
0.063335
0.024901
0.027386
0.072981
0.020162
0.017649
0.012977
0.046931
0.071547
0.068683
0.026032
0.013618
0.086567
0.049590
0.027896
0.053285
0.081855
0.023093
0.020317
0.054164
0.044687
0.075329
0.024422
0.046101
0.031587
0.020247
0.020432
0.018456
0.041576
0.051992
0.028223
0.045515
0.013652
0.033188
0.023823
0.057925
0.091360
0.087279
0.052336
0.019844
0.018073
0.018559
0.038188
0.019826
0.059448
0.022010
0.069475
0.093636
0.088379
0.044882
0.059502
0.047636
0.038054
0.029998
0.014775
0.030502
0.016276
0.059931
0.031282
0.065410
0.086749
0.055291
0.085862
0.049774
0.088985
0.028683
0.056224
0.021214
0.030713
0.022168
0.014514
0.039217
0.013987
0.051872
0.063362
0.012966
0.032566
0.049325
0.056654
0.036831
0.039746
0.036440
0.008756
0.012629
0.026562
0.021111
0.015370
0.026484
0.061826
0.036377
0.069195
0.027397
0.061936
0.087954
0.049639
0.025922
0.044633
0.027695
0.036200
0.087393
0.030768
0.023187
0.015147
0.026285
0.023019
0.046004
0.064906
0.101457
0.065522
0.043595
0.009646
0.016401
0.034316
0.020581
0.022896
0.014130
0.060122
0.018158
0.045289
0.043950
0.082515
0.060891
0.034779
0.067766
0.018723
0.044396
0.034141
0.062348
0.034859
0.039209
0.053247
0.072749
0.021111
0.058044
0.065755
0.063147
0.050923
0.026922
0.044813
0.096271
0.063383
0.035324
0.034787
0.092069
0.038699
0.017824
0.070950
0.030928
0.112110
0.022079
0.076585
0.045251
0.037923
0.027557
0.057479
0.039361
0.069954
0.047927
0.083951
0.066262
0.039817
0.061937
0.012697
0.065348
0.032741
0.010692
0.024470
0.029143
0.031610
0.031698
0.049086
0.020947
0.009974
0.035365
0.052578
0.017598
0.060387
0.060272
0.032848
0.067616
0.055685
0.068123
0.100727
0.093526
0.057609
0.039770
0.047183
0.058578
0.058742
0.024859
0.093857
0.033071
0.078440
0.049837
0.029895
0.071748
0.043543
0.042664
0.072473
0.033662
0.058656
0.025473
0.014668
0.083301
0.037992
0.049918
0.080578
0.066743
0.021554
0.013056
0.090741
0.048499
0.042179
0.041044
0.069570
0.064041
0.068624
0.035954
0.034956
0.034200
0.050202
0.080022
0.019646
0.023654
0.061332
0.083574
0.058828
0.021615
0.070924
0.144575
0.043115
0.049891
0.025645
0.016958
0.061190
0.038019
0.067378
0.087755
0.062509
0.026579
0.015104
0.047137
0.060202
0.023288
0.082349
0.025060
0.020556
0.031977
0.018781
0.090128
0.059481
0.013987
0.049949
0.065575
0.038917
0.038544
0.028311
0.024466
0.067088
0.050454
0.051258
0.175989
0.176046
0.072013
0.089037
0.072694
0.069345
0.063576
0.057344
0.103961
0.120947
0.138473
0.154677
0.077946
0.069432
0.067660
0.070297
0.074579
0.075079
0.073815
0.074041
0.158967
0.161756
0.062276
0.068523
0.010583
0.095940
0.052935
0.027058
0.104398
0.057061
0.054672
0.023818
0.078315
0.017214
0.089837
0.030179
0.101119
0.062809
0.077424
0.090579
0.084519
0.048686
0.027721
0.061050
0.029754
0.088251
0.062186
0.012110
0.044631
0.014516
0.041187
0.022251
0.045566
0.005200
0.033065
0.017301
0.048013
0.059146
0.067304
0.047586
0.072027
0.014601
0.045640
0.006410
0.078766
0.035842
0.022393
0.042809
0.067650
0.034363
0.042890
0.034421
0.027850
0.014075
0.036371
0.041463
0.038338
0.075035
0.024169
0.028958
0.089378
0.041861
0.022813
0.027356
0.055798
0.077720
0.060028
0.033170
0.063067
0.064880
0.049572
0.021851
0.065464
0.019280
0.028897
0.009937
0.023376
0.042204
0.037994
0.058303
0.025478
0.070899
0.046302
0.022913
0.007030
0.092016
0.053504
0.022688
0.025879
0.041701
0.024351
0.057142
0.066096
0.070142
0.066980
0.050618
0.040041
0.020290
0.052970
0.034846
0.044422
0.025507
0.032309
0.034419
0.015173
0.067543
0.021163
0.060686
0.069178
0.069449
0.019782
0.042479
0.088672
0.027621
0.032645
0.020316
0.016588
0.045625
0.026045
0.015981
0.032506
0.046173
0.048082
0.023724
0.053415
0.034283
0.076794
0.051808
0.070832
0.062787
0.071971
0.090417
0.031710
0.038739
0.030451
0.034974
0.031422
0.066558
0.049999
0.040102
0.056800
0.044813
0.016274
0.028808
0.036237
0.013579
0.069678
0.017130
0.023105
0.012976
0.014589
0.041790
0.077523
0.048487
0.029211
0.008811
0.009181
0.075864
0.043621
0.084096
0.057093
0.082626
0.066771
0.045866
0.067379
0.010923
0.052681
0.062626
0.058880
0.048001
0.115879
0.030448
0.044013
0.041301
0.075009
0.070583
0.050460
0.068756
0.034727
0.061043
0.032068
0.051144
0.023782
0.036240
0.032689
0.054153
0.037658
0.044178
0.084816
0.012681
0.011874
0.094949
0.043990
0.031774
0.031982
0.023668
0.018444
0.020954
0.017551
0.066847
0.061963
0.033224
0.025630
0.046365
0.064313
0.017684
0.092044
0.006235
0.050579
0.042686
0.034551
0.029139
0.046168
0.068509
0.041870
0.057734
0.056588
0.074567
0.069254
0.045473
0.055842
0.026531
0.049029
0.020273
0.088167
0.056022
0.044163
0.020697
0.062987
0.037303
0.066850
0.052202
0.091229
0.037286
0.033191
0.016021
0.036166
0.016297
0.027942
0.037894
0.067207
0.049317
0.066302
0.037473
0.011379
0.064383
0.042790
0.079158
0.063480
0.022313
0.023229
0.072151
0.021001
0.013456
0.018218
0.049389
0.018505
0.008328
0.086202
0.047940
0.018863
0.054482
0.082120
0.024463
0.016498
0.051613
0.038891
0.074920
0.018817
0.053768
0.034789
0.021566
0.014333
0.013187
0.039336
0.048614
0.028840
0.045108
0.018963
0.036098
0.016963
0.058320
0.089496
0.088537
0.051313
0.047248
0.015822
0.028483
0.024144
0.039974
0.022263
0.013236
0.065788
0.067831
0.070841
0.091490
0.085890
0.044006
0.056707
0.046134
0.036612
0.022608
0.005091
0.043078
0.024011
0.058563
0.065856
0.030421
0.085942
0.055575
0.082392
0.048745
0.090730
0.025399
0.053563
0.044657
0.036754
0.030189
0.017422
0.015531
0.059603
0.063965
0.049141
0.062535
0.055764
0.018864
0.035799
0.049738
0.060345
0.057819
0.066148
0.033866
0.036419
0.038523
0.015403
0.016234
0.028423
0.015557
0.022657
0.027814
0.037573
0.069140
0.024442
0.059573
0.090870
0.053278
0.046614
0.027449
0.023662
0.034658
0.086754
0.029433
0.030494
0.021281
0.028971
0.032088
0.030222
0.065774
0.098746
0.066831
0.041246
0.011094
0.008379
0.032571
0.016651
0.022052
0.005639
0.059374
0.017465
0.041393
0.038496
0.081610
0.059558
0.022117
0.046623
0.030275
0.069019
0.038081
0.035687
0.056102
0.072851
0.021703
0.049409
0.023818
0.046250
0.094464
0.039370
0.063384
0.035178
0.032637
0.093405
0.037052
0.030030
0.065746
0.018440
0.117362
0.013354
0.087509
0.041695
0.043566
0.036483
0.053730
0.034551
0.070877
0.047702
0.033935
0.082927
0.066820
0.020571
0.041854
0.061382
0.022670
0.013949
0.025161
0.024613
0.065221
0.046508
0.050268
0.018558
0.020057
0.061752
0.054676
0.020423
0.032332
0.060073
0.067302
0.032457
0.069112
0.098992
0.096387
0.056923
0.041145
0.047800
0.063180
0.059441
0.056719
0.014478
0.093225
0.032673
0.075705
0.049288
0.027733
0.033366
0.071789
0.043882
0.038252
0.073339
0.060708
0.026413
0.009323
0.084359
0.036426
0.050696
0.077111
0.068942
0.012769
0.006186
0.092597
0.047369
0.041752
0.042019
0.038960
0.069431
0.068663
0.036483
0.038693
0.034479
0.051699
0.084018
0.023017
0.019388
0.058958
0.081557
0.061279
0.016137
0.064884
0.150523
0.038439
0.055802
0.024762
0.018924
0.039024
0.067025
0.087142
0.062585
0.073691
0.063051
0.028510
0.017479
0.041509
0.062256
0.022146
0.082351
0.014015
0.040712
0.027634
0.028502
0.087583
0.059647
0.018968
0.052685
0.062829
0.040350
0.025393
0.023285
0.064497
0.063256
0.062258
0.086529
0.087785
0.113321
0.116240
0.048226
0.047083
0.049815
0.055977
0.113780
0.110140
0.103767
0.096817
0.119401
0.120449
0.123486
0.124617
0.083750
0.099078
0.054817
0.067000
