# vtk DataFile Version 2.0
Unstructured Grid Example
ASCII
DATASET UNSTRUCTURED_GRID
POINTS 1221 float
-0.004517 0.001293 -0.000371 
1.005826 0.003923 -0.000367 
0.995314 1.001166 -0.000015 
0.005974 1.003770 -0.000196 
-0.004631 0.001217 0.049609 
1.005871 0.003813 0.049621 
0.995357 1.001114 0.050007 
0.005930 1.003781 0.049817 
-0.003718 0.051198 0.049706 
-0.002640 0.101090 0.049840 
-0.001423 0.150867 0.049996 
-0.000226 0.200435 0.050064 
0.000850 0.249859 0.050116 
0.001562 0.299079 0.050145 
0.001834 0.348299 0.050091 
0.001618 0.397591 0.049968 
0.001019 0.447045 0.049893 
0.000136 0.496868 0.049868 
-0.000797 0.547105 0.049874 
-0.001583 0.597686 0.049925 
-0.001964 0.648688 0.049941 
-0.001870 0.699786 0.049949 
-0.001236 0.750875 0.049984 
-0.000145 0.801876 0.049938 
0.001265 0.852789 0.049865 
0.002848 0.903363 0.049816 
0.004437 0.953677 0.049824 
-0.003644 0.051274 -0.000276 
-0.002552 0.101200 -0.000181 
-0.001361 0.150954 -0.000094 
-0.000153 0.200454 -0.000047 
0.000857 0.249834 -0.000061 
0.001570 0.299127 -0.000115 
0.001853 0.348236 -0.000145 
0.001630 0.397538 -0.000198 
0.001007 0.447066 -0.000175 
0.000148 0.496898 -0.000128 
-0.000820 0.547181 -0.000011 
-0.001584 0.597753 0.000119 
-0.002004 0.648656 0.000265 
-0.001883 0.699792 0.000259 
-0.001278 0.750835 0.000244 
-0.000168 0.801846 0.000165 
0.001260 0.852689 0.000053 
0.002867 0.903301 -0.000065 
0.004495 0.953655 -0.000170 
-0.004555 0.001257 0.024620 
0.005928 1.003767 0.024813 
0.045549 0.000363 0.049719 
0.096027 -0.000359 0.049832 
0.146717 -0.000774 0.049856 
0.197460 -0.000829 0.049863 
0.248088 -0.000613 0.049847 
0.298566 -0.000158 0.049812 
0.348913 0.000347 0.049776 
0.399105 0.000730 0.049757 
0.449162 0.000916 0.049760 
0.499198 0.000836 0.049821 
0.549339 0.000497 0.049923 
0.599686 -0.000036 0.050050 
0.650318 -0.000553 0.050136 
0.701217 -0.000999 0.050133 
0.752105 -0.001085 0.050087 
0.803197 -0.000770 0.050026 
0.854249 -0.000095 0.049865 
0.905085 0.001000 0.049750 
0.955665 0.002346 0.049658 
0.045667 0.000419 -0.000211 
0.096133 -0.000324 -0.000021 
0.146673 -0.000721 0.000066 
0.197397 -0.000745 0.000034 
0.248011 -0.000533 -0.000003 
0.298507 -0.000096 -0.000065 
0.348884 0.000397 -0.000139 
0.399079 0.000769 -0.000202 
0.449182 0.000945 -0.000211 
0.499273 0.000856 -0.000143 
0.549458 0.000495 0.000005 
0.599814 -0.000060 0.000180 
0.650360 -0.000624 0.000350 
0.701166 -0.001046 0.000379 
0.752164 -0.001178 0.000403 
0.803128 -0.000806 0.000287 
0.854137 -0.000052 0.000094 
0.904980 0.001047 -0.000085 
0.955579 0.002463 -0.000269 
1.005824 0.003864 0.024630 
1.004374 0.053712 0.049761 
1.002740 0.103361 0.049956 
1.001122 0.152804 0.050119 
0.999755 0.201847 0.050194 
0.998670 0.250826 0.050254 
0.998133 0.299879 0.050227 
0.998075 0.348617 0.050278 
0.998543 0.397686 0.050200 
0.999363 0.447074 0.050149 
1.000323 0.496864 0.050083 
1.001215 0.547071 0.050005 
1.001825 0.597552 0.049931 
1.001969 0.648389 0.049834 
1.001612 0.699147 0.049799 
1.000852 0.749832 0.049782 
0.999786 0.800409 0.049785 
0.998528 0.850825 0.049828 
0.997341 0.901030 0.049884 
0.996267 0.951096 0.049947 
1.004349 0.053804 -0.000248 
1.002709 0.103466 -0.000159 
1.001153 0.152796 -0.000091 
0.999777 0.201856 -0.000059 
0.998701 0.250824 -0.000044 
0.998168 0.299790 -0.000038 
0.998135 0.348548 -0.000041 
0.998596 0.397670 -0.000015 
0.999407 0.447073 0.000032 
1.000359 0.496860 0.000084 
1.001237 0.547063 0.000079 
1.001819 0.597555 0.000127 
1.001951 0.648260 0.000083 
1.001602 0.699117 -0.000017 
1.000837 0.749815 -0.000057 
0.999736 0.800412 -0.000097 
0.998505 0.850861 -0.000106 
0.997280 0.901068 -0.000114 
0.996228 0.951149 -0.000065 
0.995360 1.001144 0.024996 
0.945530 1.000239 0.050065 
0.896022 0.999534 0.050133 
0.846641 0.999153 0.050189 
0.797379 0.999158 0.050212 
0.748066 0.999413 0.050168 
0.698523 0.999937 0.050102 
0.648878 1.000484 0.050022 
0.599075 1.000931 0.049909 
0.549153 1.001144 0.049851 
0.499218 1.001068 0.049845 
0.449373 1.000697 0.049912 
0.399726 1.000119 0.049987 
0.350338 0.999537 0.050083 
0.301200 0.999091 0.050189 
0.252095 0.998917 0.050258 
0.203077 0.999167 0.050217 
0.154240 0.999769 0.050148 
0.105105 1.000965 0.050016 
0.055694 1.002330 0.049891 
0.945511 1.000307 -0.000001 
0.895998 0.999541 -0.000032 
0.846589 0.999177 0.000028 
0.797430 0.999165 -0.000004 
0.748090 0.999419 0.000013 
0.698584 0.999932 -0.000008 
0.648963 1.000494 -0.000070 
0.599128 1.000907 -0.000127 
0.549184 1.001118 -0.000177 
0.499211 1.001044 -0.000184 
0.449364 1.000682 -0.000171 
0.399730 1.000102 -0.000154 
0.350317 0.999530 -0.000127 
0.301087 0.999054 -0.000072 
0.252091 0.998890 -0.000004 
0.203267 0.999160 -0.000091 
0.154327 0.999810 -0.000102 
0.105168 1.000907 -0.000166 
0.055761 1.002323 -0.000164 
0.030195 1.003070 0.018718 
0.025681 1.003199 0.035252 
0.971081 1.000721 0.018901 
0.975597 1.000781 0.035435 
0.480930 1.000948 0.024841 
0.772741 0.999280 0.025097 
0.673754 1.000227 0.025016 
0.524940 1.001117 0.024825 
0.723306 0.999650 0.025078 
0.624007 1.000722 0.024927 
0.080510 1.001593 0.024899 
0.227644 0.998981 0.025132 
0.574197 1.001044 0.024859 
0.178740 0.999463 0.025029 
0.129760 1.000340 0.024969 
0.871288 0.999295 0.025069 
0.822004 0.999135 0.025121 
0.374986 0.999807 0.024941 
0.914094 0.999790 0.025045 
0.276645 0.998929 0.025121 
0.325732 0.999262 0.025010 
0.424523 1.000408 0.024898 
0.500714 0.502866 0.049996 
0.293504 0.295191 0.050131 
0.708838 0.705311 0.050091 
0.707880 0.290370 0.049923 
0.289735 0.708830 0.050006 
0.501290 0.782666 0.049997 
0.784784 0.497711 0.049983 
0.499470 0.224370 0.049881 
0.224444 0.502579 0.049889 
0.167703 0.169479 0.050166 
0.830937 0.168630 0.050051 
0.829734 0.829751 0.050028 
0.169031 0.829193 0.050088 
0.564435 0.642793 0.050060 
0.437165 0.361515 0.050001 
0.642486 0.439192 0.049958 
0.353300 0.568537 0.049914 
0.639256 0.847287 0.050049 
0.360300 0.154137 0.049952 
0.153200 0.359371 0.050062 
0.844808 0.359113 0.050000 
0.848322 0.640071 0.049993 
0.641462 0.153028 0.049987 
0.358477 0.845891 0.050057 
0.151851 0.633737 0.049939 
0.679474 0.582719 0.050075 
0.560654 0.332460 0.049925 
0.439267 0.670867 0.049975 
0.322868 0.421607 0.050028 
0.533244 0.883064 0.049931 
0.464719 0.118748 0.049806 
0.881881 0.464120 0.050007 
0.120687 0.464062 0.049880 
0.742807 0.895827 0.050120 
0.109156 0.257035 0.050174 
0.257174 0.097097 0.050023 
0.894833 0.255099 0.050083 
0.890977 0.735713 0.049928 
0.737841 0.108893 0.050092 
0.263824 0.888153 0.050169 
0.108447 0.737747 0.050011 
0.601465 0.741306 0.050066 
0.399531 0.261176 0.050009 
0.744327 0.404625 0.049926 
0.250639 0.597708 0.049884 
0.599145 0.523270 0.050030 
0.398779 0.477310 0.049975 
0.611296 0.254366 0.049923 
0.387628 0.746315 0.050010 
0.095146 0.094163 0.049995 
0.904796 0.095344 0.049934 
0.902766 0.901686 0.050010 
0.101049 0.905872 0.050008 
0.436705 0.903487 0.049962 
0.904571 0.561340 0.049992 
0.562980 0.097150 0.049926 
0.095758 0.561470 0.049869 
0.258811 0.201721 0.050142 
0.741918 0.796664 0.050088 
0.795642 0.257046 0.049991 
0.207583 0.744269 0.050071 
0.197579 0.278036 0.050166 
0.799614 0.715172 0.050036 
0.714007 0.205577 0.050003 
0.284786 0.792344 0.050125 
0.502680 0.414522 0.049984 
0.497834 0.590956 0.050003 
0.242436 0.365273 0.050089 
0.760829 0.634233 0.050063 
0.690078 0.501860 0.050014 
0.645331 0.346158 0.049908 
0.309135 0.506010 0.049922 
0.353379 0.655491 0.049948 
0.079870 0.182628 0.050136 
0.174880 0.083175 0.050039 
0.815372 0.917994 0.050112 
0.918968 0.182773 0.050125 
0.916703 0.820164 0.049934 
0.823026 0.081802 0.050016 
0.080743 0.817923 0.049955 
0.187297 0.913081 0.050144 
0.653079 0.656721 0.050108 
0.349277 0.345829 0.050078 
0.514356 0.698404 0.050030 
0.486324 0.305247 0.049952 
0.609205 0.917940 0.049973 
0.388564 0.083631 0.049826 
0.080212 0.392783 0.049967 
0.915332 0.388394 0.050085 
0.927106 0.658865 0.049951 
0.661045 0.074127 0.050073 
0.340321 0.924189 0.050092 
0.072175 0.660256 0.049970 
0.431016 0.822258 0.049998 
0.822383 0.565039 0.050011 
0.568364 0.178268 0.049892 
0.178565 0.566051 0.049851 
0.191671 0.430842 0.049962 
0.573466 0.819394 0.050008 
0.426490 0.179892 0.049888 
0.820658 0.426069 0.049957 
0.565981 0.460062 0.049975 
0.435805 0.544619 0.049961 
0.772605 0.330545 0.049943 
0.223782 0.667496 0.049956 
0.667783 0.781555 0.050071 
0.333584 0.218718 0.050074 
0.675934 0.930391 0.050069 
0.070457 0.316449 0.050082 
0.321392 0.069616 0.049890 
0.928080 0.321694 0.050149 
0.746868 0.559851 0.050035 
0.447677 0.737595 0.050001 
0.551814 0.264430 0.049900 
0.615160 0.596860 0.050079 
0.387001 0.407927 0.050018 
0.259612 0.443615 0.049976 
0.585505 0.394846 0.049936 
0.414589 0.609065 0.049954 
0.451426 0.430644 0.050000 
0.549423 0.574804 0.050032 
0.484301 0.935576 0.049912 
0.935326 0.513001 0.050039 
0.514712 0.065989 0.049843 
0.065111 0.513022 0.049837 
0.499898 0.839520 0.049950 
0.838406 0.506261 0.049989 
0.500050 0.153052 0.049841 
0.153664 0.500078 0.049871 
0.696045 0.842714 0.050092 
0.303369 0.156613 0.050056 
0.840300 0.301821 0.050007 
0.147293 0.701055 0.050007 
0.160322 0.230007 0.050212 
0.842588 0.771933 0.049985 
0.773280 0.156629 0.050062 
0.226969 0.840497 0.050144 
0.669237 0.237788 0.049949 
0.329313 0.761430 0.050058 
0.695922 0.356012 0.049913 
0.302090 0.644531 0.049928 
0.941620 0.604522 0.049971 
0.606614 0.060127 0.050037 
0.393908 0.939574 0.050013 
0.058473 0.604906 0.049944 
0.699939 0.434058 0.049944 
0.303603 0.559466 0.049899 
0.050903 0.054256 0.049800 
0.949620 0.056108 0.049789 
0.942367 0.945620 0.050009 
0.058613 0.947871 0.049923 
0.770573 0.945063 0.050148 
0.056350 0.231565 0.050142 
0.224756 0.053349 0.049969 
0.945784 0.770878 0.049838 
0.773672 0.053529 0.050039 
0.230993 0.943527 0.050240 
0.945354 0.227464 0.050142 
0.053820 0.771945 0.049968 
0.219365 0.159174 0.050146 
0.774474 0.846473 0.050092 
0.846263 0.223755 0.050024 
0.154460 0.773669 0.050062 
[...]
POINT_DATA 1221
SCALARS u float 1
LOOKUP_TABLE default
0.126818
0.189238
0.129935
0.190131
0.129271
0.188625
0.128460
0.189300
0.105405
0.076960
0.044823
0.013293
0.023399
0.048943
0.067356
0.078072
0.084156
0.084433
0.080855
0.075468
0.063558
0.050653
0.040735
0.050656
0.082493
0.118684
0.155127
0.104137
0.076046
0.044799
0.012955
0.023543
0.048429
0.068940
0.079618
0.083580
0.083631
0.078997
0.074036
0.065324
0.051454
0.041602
0.050063
0.079918
0.117652
0.155951
0.127563
0.189040
0.120385
0.107428
0.090838
0.071997
0.054182
0.039148
0.031291
0.031760
0.034025
0.031542
0.022359
0.008604
0.017537
0.042510
0.063765
0.088472
0.114410
0.139589
0.165231
0.117262
0.104417
0.091613
0.072846
0.055401
0.040291
0.032092
0.032736
0.034122
0.030453
0.019762
0.007157
0.021555
0.043349
0.067175
0.087246
0.111355
0.136942
0.164242
0.188318
0.154493
0.116678
0.081312
0.050414
0.042686
0.050700
0.064208
0.073767
0.080659
0.084855
0.085307
0.082174
0.068598
0.049373
0.024085
0.013699
0.045628
0.076776
0.104695
0.155599
0.118441
0.081416
0.050333
0.041409
0.049630
0.063601
0.073180
0.080367
0.085058
0.085764
0.082070
0.070370
0.049217
0.023110
0.013436
0.046513
0.078679
0.106100
0.128598
0.120445
0.107814
0.093333
0.074289
0.054556
0.039867
0.032897
0.035391
0.038507
0.035840
0.025329
0.008055
0.015587
0.040824
0.063827
0.085973
0.114317
0.139788
0.165555
0.121063
0.108392
0.094427
0.072722
0.053721
0.038152
0.030970
0.034016
0.037537
0.035551
0.025500
0.008788
0.015621
0.038818
0.063692
0.090801
0.116565
0.141247
0.167203
0.178761
0.180368
0.125642
0.125852
0.032576
0.063845
0.034068
0.037285
0.046597
0.033091
0.154353
0.076324
0.037037
0.101661
0.128406
0.101671
0.083969
0.005447
0.114196
0.052919
0.027960
0.017098
0.079463
0.032779
0.032264
0.033843
0.033918
0.033753
0.011889
0.030404
0.007344
0.035092
0.028370
0.036924
0.030379
0.062204
0.061460
0.042648
0.040500
0.020263
0.016348
0.060236
0.059992
0.063077
0.015664
0.013580
0.060290
0.046451
0.044135
0.045468
0.045355
0.031730
0.027722
0.042569
0.046848
0.045314
0.046449
0.043624
0.049604
0.050673
0.045158
0.046365
0.053120
0.036803
0.035243
0.024718
0.028202
0.066528
0.065460
0.016979
0.017649
0.068153
0.066144
0.068437
0.067899
0.011542
0.063217
0.008103
0.055201
0.016744
0.016512
0.051799
0.050574
0.045090
0.045656
0.032755
0.032130
0.071718
0.072134
0.043149
0.045295
0.033672
0.028580
0.031378
0.028700
0.022074
0.065581
0.067477
0.011551
0.026066
0.060959
0.009396
0.061463
0.046737
0.046645
0.050923
0.049036
0.033825
0.030231
0.069669
0.063372
0.072489
0.028651
0.027119
0.069030
0.013663
0.043767
0.011636
0.035844
0.038211
0.029643
0.025137
0.035038
0.068758
0.068926
0.048700
0.049834
0.011880
0.011756
0.037871
0.064440
0.035888
0.066200
0.032139
0.032483
0.030065
0.060940
0.060365
0.028944
0.052447
0.052842
0.072894
0.073479
0.027220
0.062127
0.023194
0.059525
0.028283
0.030265
0.023609
0.030927
0.017671
0.015601
0.061429
0.062570
0.038220
0.037866
0.038105
0.039759
0.022501
0.021317
0.027543
0.028068
0.076075
0.007412
0.004266
0.067815
0.022097
0.024155
0.094880
0.121425
0.094830
0.121875
0.063580
0.027663
0.062019
0.026573
0.065097
0.065925
0.033409
0.031841
0.031669
0.035337
0.041558
0.042532
0.037057
0.062764
0.032654
0.068925
0.057986
0.059914
0.031274
0.030988
0.041394
0.038098
0.061732
0.062853
0.053387
0.050525
0.049599
0.040939
0.041488
0.034670
0.034697
0.045715
0.084248
0.054918
0.084936
0.091978
0.047767
0.055612
0.095768
0.050510
0.049022
0.019033
0.045871
0.029167
0.029944
0.007248
0.030017
0.025259
0.051113
0.030149
0.029524
0.041093
0.040647
0.041452
0.041838
0.022597
0.019947
0.044351
0.055777
0.048521
0.056109
0.048681
0.052990
0.039272
0.042784
0.042231
0.007803
0.009143
0.052262
0.051467
0.028170
0.028516
0.039729
0.040260
0.023028
0.022702
0.008894
0.069769
0.011496
0.064548
0.052304
0.075489
0.075166
0.028803
0.029115
0.051859
0.053977
0.020550
0.018795
0.029935
0.028460
0.025905
0.066420
0.015739
0.074685
0.012338
0.067192
0.031816
0.041028
0.043315
0.025365
0.047628
0.021544
0.045368
0.067561
0.019979
0.018050
0.075994
0.076062
0.048965
0.048245
0.049468
0.047223
0.054120
0.050837
0.017165
0.017277
0.059086
0.058476
0.010858
0.037518
0.035807
0.072258
0.033128
0.067981
0.038928
0.036160
0.040970
0.040124
0.059833
0.019378
0.021874
0.048431
0.017590
0.018731
0.046479
0.046564
0.016879
0.077253
0.038837
0.079167
0.019190
0.084877
0.038171
0.085040
0.048638
0.046707
0.066773
0.019058
0.035001
0.077780
0.077460
0.041389
0.042098
0.027676
0.037086
0.068081
0.068821
0.039951
0.044536
0.042455
0.037117
0.057759
0.057372
0.052184
0.052106
0.030094
0.066787
0.032447
0.063249
0.032889
0.029401
0.067827
0.024587
0.025663
0.054247
0.028938
0.028675
0.031210
0.028221
0.018589
0.037129
0.074886
0.033288
0.066464
0.017680
0.048545
0.014410
0.039832
0.002770
0.058487
0.003451
0.051765
0.059642
0.031559
0.034918
0.036334
0.062293
0.036672
0.066145
0.066407
0.032969
0.050027
0.051950
0.023353
0.029114
0.025466
0.063146
0.040758
0.040773
0.025325
0.068987
0.031020
0.035593
0.070750
0.056402
0.060051
0.063574
0.036481
0.036747
0.033684
0.076071
0.095778
0.099359
0.096380
0.116573
0.076612
0.100334
0.116721
0.060597
0.009231
0.003510
0.030169
0.027225
0.027173
0.056468
0.056720
0.063650
0.038130
0.037898
0.024142
0.022189
0.020821
0.026722
0.032995
0.034860
0.055205
0.056514
0.055031
0.066176
0.066891
0.064857
0.034534
0.024177
0.023705
0.019743
0.038447
0.062540
0.037179
0.063245
0.025111
0.047677
0.020704
0.074708
0.024583
0.071371
0.028563
0.014667
0.013197
0.040991
0.054700
0.056796
0.046137
0.006699
0.002562
0.067372
0.066962
0.033959
0.039850
0.031723
0.039986
0.024019
0.024331
0.049976
0.047545
0.035699
0.036167
0.032893
0.034150
0.056467
0.019402
0.029697
0.029316
0.055066
0.055330
0.036250
0.034200
0.061748
0.022805
0.075642
0.018059
0.069595
0.015398
0.111679
0.154922
0.111189
0.156183
0.027513
0.030091
0.017600
0.045103
0.044448
0.037085
0.037637
0.053990
0.052570
0.063748
0.033280
0.066765
0.030404
0.068214
0.062324
0.045353
0.067797
0.031422
0.030762
0.073562
0.073085
0.051910
0.055532
0.033326
0.054046
0.028309
0.057230
0.118122
0.119601
0.172750
0.175349
0.085580
0.046406
0.010685
0.029486
0.062363
0.092863
0.043155
0.064834
0.099851
0.132258
0.057176
0.082434
0.077429
0.069900
0.084378
0.077314
0.037372
0.060350
0.177553
0.179413
0.123644
0.125240
0.027769
0.047357
0.125958
0.101721
0.152456
0.077697
0.082656
0.099420
0.064034
0.112069
0.031582
0.032984
0.034357
0.033788
0.010287
0.030342
0.054102
0.013454
0.079524
0.032484
0.031886
0.034283
0.034087
0.032874
0.011193
0.030240
0.007175
0.034270
0.027548
0.037462
0.029982
0.061868
0.060389
0.041755
0.040791
0.019766
0.017898
0.061090
0.059023
0.062792
0.016448
0.013933
0.060420
0.046139
0.044931
0.044619
0.045567
0.031115
0.026313
0.041741
0.047152
0.045562
0.046786
0.044102
0.049652
0.049879
0.045701
0.046620
0.053029
0.036045
0.034873
0.026687
0.028194
0.066168
0.064957
0.016909
0.017817
0.066449
0.066322
0.069313
0.069727
0.011884
0.063049
0.006402
0.054486
0.016857
0.016314
0.052150
0.050413
0.044988
0.045216
0.033273
0.032357
0.071811
0.072285
0.043630
0.044778
0.032180
0.030985
0.028976
0.029392
0.021027
0.063843
0.068021
0.010246
0.026137
0.060301
0.007584
0.062285
0.046624
0.050489
0.046188
0.049531
0.033110
0.030836
0.070467
0.062543
0.072241
0.030128
0.026631
0.069567
0.013968
0.043343
0.010609
0.036247
0.039007
0.028650
0.026232
0.033529
0.069332
0.068819
0.011626
0.048527
0.050176
0.012098
0.036890
0.065560
0.036381
0.064872
0.031666
0.032531
0.030627
0.061224
0.060096
0.028802
0.052763
0.052969
0.072907
0.073688
0.027740
0.062113
0.022094
0.058471
0.027647
0.029924
0.023683
0.031279
0.016911
0.016181
0.061828
0.062604
0.038190
0.037771
0.038470
0.039629
0.022761
0.021853
0.028376
0.029222
0.075844
0.009596
0.005785
0.067336
0.008741
0.010871
0.092238
0.120483
0.095643
0.122438
0.063488
0.028480
0.061966
0.025990
0.063717
0.067636
0.032532
0.032757
0.031584
0.035116
0.041958
0.042142
0.036354
0.062119
0.032592
0.069134
0.058741
0.059579
0.032329
0.031199
0.034516
0.038706
0.061735
0.062694
0.054248
0.040192
0.033717
0.040876
0.041093
0.049340
0.048684
0.043913
0.082531
0.054925
0.085236
0.088126
0.048362
0.055868
0.096184
0.049697
0.048523
0.046108
0.028917
0.030072
0.026026
0.026017
0.029225
0.026202
0.049793
0.029976
0.029306
0.041398
0.040573
0.041365
0.041437
0.020702
0.022334
0.043826
0.055280
0.049701
0.057677
0.047751
0.051188
0.038490
0.042847
0.043070
0.008570
0.008075
0.051910
0.050638
0.027973
0.028699
0.040198
0.039890
0.023118
0.023047
0.009018
0.069546
0.012812
0.064114
0.051721
0.075818
0.075146
0.052515
0.053516
0.020988
0.019717
0.029325
0.027971
0.026532
0.065093
0.016379
0.075183
0.010672
0.066248
0.031517
0.040141
0.043560
0.025751
0.047676
0.020063
0.044264
0.068680
0.020067
0.017484
0.076159
0.076049
0.049504
0.047902
0.050346
0.047515
0.053273
0.021605
0.050528
0.017621
0.017452
0.059215
0.058710
0.037946
0.029117
0.028445
0.035314
0.073524
0.034784
0.066589
0.038924
0.035508
0.040533
0.038328
0.060206
0.019224
0.022944
0.047752
0.018602
0.017226
0.046450
0.046612
0.015242
0.077532
0.037813
0.079950
0.019049
0.082083
0.036196
0.085900
0.066990
0.054607
0.051470
0.021026
0.019839
0.034098
0.017466
0.077997
0.077466
0.041796
0.038799
0.042276
0.038725
0.027649
0.037746
0.068080
0.068940
0.040060
0.044664
0.037914
0.043148
0.057799
0.052681
0.051601
0.029599
0.067377
0.034097
0.064686
0.030351
0.032261
0.067581
0.024450
0.026856
0.054205
0.028885
0.028240
0.030488
0.026769
0.031339
0.036397
0.075788
0.033900
0.065821
0.017994
0.048301
0.013350
0.039051
0.003927
0.058036
0.003094
0.051289
0.060655
0.031779
0.036993
0.038505
0.066432
0.066531
0.032145
0.049297
0.052384
0.023863
0.027983
0.026139
0.062157
0.068694
0.030447
0.035218
0.070774
0.009141
0.056690
0.060328
0.063205
0.037918
0.036355
0.030301
0.074206
0.092970
0.099606
0.096525
0.113715
0.077732
0.100782
0.118310
0.060942
0.055530
0.004333
0.030695
0.037728
0.027120
0.027437
0.032655
0.056671
0.056019
0.064205
0.024238
0.020862
0.021009
0.037758
0.015761
0.034119
0.054297
0.045893
0.041139
0.065954
0.066972
0.065385
0.064253
0.025684
0.023781
0.037766
0.063686
0.038324
0.061839
0.024350
0.046572
0.056748
0.022065
0.074706
0.023373
0.070347
0.029087
0.014730
0.013812
0.040452
0.001437
0.055014
0.056807
0.044897
0.008690
0.067299
0.068403
0.033650
0.040261
0.031622
0.039604
0.027474
0.027599
0.050794
0.047194
0.036121
0.036226
0.032704
0.034377
0.057308
0.056013
0.029970
0.028877
0.055066
0.054903
0.035929
0.034577
0.061680
0.023809
0.075209
0.020715
0.068989
0.015527
0.109300
0.155490
0.112597
0.156876
0.027749
0.030293
0.044997
0.044228
0.037361
0.038167
0.018051
0.018480
0.053895
0.052822
0.064472
0.032404
0.065396
0.031002
0.066414
0.061692
0.045940
0.068795
0.031625
0.030798
0.073838
0.073063
0.052780
0.033110
0.053637
0.028802
0.057343
0.173354
0.176072
0.116734
0.119435
0.082777
0.036840
0.042606
0.064853
0.099703
0.137910
0.011196
0.028671
0.060595
0.087966
0.059968
0.083901
0.074606
0.082802
0.070735
0.076904
0.045952
0.058195
