# vtk DataFile Version 2.0
Unstructured Grid Example
ASCII
DATASET UNSTRUCTURED_GRID
POINTS 2044 float
1.140651 0.001444 0.222516 
0.000592 1.135209 0.214161 
-1.137286 0.002044 0.224668 
0.002905 -1.135480 0.227857 
-0.001733 0.002020 0.806126 
1.132767 -0.109722 0.222810 
1.114092 -0.217971 0.222619 
1.084760 -0.329613 0.213821 
1.047586 -0.429081 0.220747 
1.002527 -0.526900 0.228936 
0.945533 -0.621904 0.230071 
0.879698 -0.712495 0.220354 
0.801504 -0.795800 0.220035 
0.718977 -0.872710 0.224373 
0.632571 -0.937485 0.227166 
0.540067 -1.000573 0.229156 
0.441887 -1.054425 0.229897 
0.332196 -1.088494 0.222478 
0.224901 -1.114608 0.226419 
0.114064 -1.132955 0.227822 
-0.102427 -1.136217 0.232471 
-0.214874 -1.115842 0.230102 
-0.325285 -1.090424 0.227218 
-0.431823 -1.054371 0.229936 
-0.527641 -0.999726 0.220013 
-0.624274 -0.942428 0.221966 
-0.715646 -0.879474 0.223118 
-0.797505 -0.805489 0.224908 
-0.874863 -0.722066 0.223622 
-0.941939 -0.628464 0.225591 
-1.000251 -0.534880 0.226598 
-1.048258 -0.433925 0.222258 
-1.085828 -0.326387 0.224434 
-1.117464 -0.223330 0.228472 
-1.133661 -0.109865 0.227227 
-1.136297 0.115562 0.227117 
-1.115679 0.223817 0.236796 
-1.087236 0.329379 0.236304 
-1.056347 0.435674 0.241412 
-1.005456 0.533410 0.236077 
-0.951261 0.633293 0.236703 
-0.886994 0.725959 0.239686 
-0.807032 0.805279 0.232765 
-0.722755 0.879429 0.233791 
-0.632119 0.943051 0.234806 
-0.537109 1.001291 0.230453 
-0.435102 1.052782 0.228182 
-0.329250 1.085697 0.225163 
-0.220923 1.116160 0.222895 
-0.111010 1.126158 0.217617 
0.111978 1.126603 0.215456 
0.225977 1.111390 0.213554 
0.333101 1.086755 0.213215 
0.439602 1.053809 0.224868 
0.537418 1.002447 0.221844 
0.633938 0.941574 0.224561 
0.725971 0.871753 0.229907 
0.808780 0.799286 0.233577 
0.885692 0.715974 0.233237 
0.947922 0.627481 0.232054 
1.008220 0.534544 0.237567 
1.052128 0.435419 0.232852 
1.087538 0.330963 0.224766 
1.117982 0.222890 0.218514 
1.135823 0.113552 0.220868 
1.118955 0.000917 0.311279 
1.082833 -0.003354 0.388143 
1.039479 -0.003343 0.460821 
0.993819 -0.001192 0.534251 
0.931536 -0.003019 0.591036 
0.861228 -0.002838 0.644484 
0.783248 -0.002717 0.685624 
0.702033 -0.005266 0.726179 
0.611760 -0.004785 0.743361 
0.533171 -0.003349 0.772359 
0.444499 -0.004048 0.787144 
0.353938 -0.002915 0.793503 
0.265276 -0.001864 0.794513 
0.176091 -0.002097 0.801569 
0.088394 0.000415 0.804183 
-0.002944 0.091310 0.804764 
-0.003024 0.177974 0.806772 
-0.002504 0.265209 0.803752 
0.000994 0.355634 0.803721 
0.001958 0.445067 0.793128 
0.004183 0.532278 0.773729 
0.006309 0.618471 0.750741 
0.007036 0.702357 0.724962 
0.007640 0.780421 0.685423 
0.007069 0.853101 0.638334 
0.006472 0.918908 0.580798 
0.002068 0.989265 0.525868 
0.002763 1.034798 0.454973 
0.001318 1.083349 0.381009 
0.002924 1.115030 0.299599 
-0.090754 0.002413 0.802917 
-0.180459 -0.000903 0.804278 
-0.269401 -0.003625 0.800255 
-0.357812 -0.001759 0.796367 
-0.445687 -0.001582 0.787627 
-0.534687 -0.001760 0.770901 
-0.622895 -0.003761 0.749954 
-0.706200 -0.003723 0.721364 
-0.786545 -0.004178 0.681930 
-0.863762 -0.002427 0.641231 
-0.928182 -0.002309 0.589076 
-0.983505 -0.002271 0.526091 
-1.039533 -0.000527 0.460467 
-1.083363 0.001307 0.386228 
-1.116527 0.004669 0.309360 
-0.001807 -0.086068 0.809221 
-0.001625 -0.175695 0.812112 
-0.004050 -0.263963 0.809924 
-0.004041 -0.351471 0.801595 
-0.000758 -0.438269 0.788948 
-0.002170 -0.527186 0.776919 
-0.000525 -0.614166 0.756801 
0.001079 -0.697757 0.731779 
0.001543 -0.778583 0.693692 
0.001926 -0.851294 0.649342 
0.005833 -0.921240 0.598910 
0.005872 -0.978050 0.532282 
0.005978 -1.037299 0.467412 
0.002401 -1.081298 0.392382 
0.004687 -1.117958 0.314282 
0.815370 0.465426 0.588830 
0.323126 0.353825 0.783470 
0.362688 0.928248 0.519431 
0.971848 0.342833 0.485725 
1.026043 0.288076 0.422128 
1.055672 0.221840 0.402506 
1.087234 0.216255 0.337336 
0.563723 0.852838 0.482111 
0.504555 0.310871 0.757349 
0.285071 0.679413 0.712590 
0.788247 0.680096 0.464565 
0.730964 0.288234 0.695746 
0.838812 0.689963 0.391615 
0.770887 0.180850 0.692316 
0.205310 0.514374 0.771747 
0.215747 0.844790 0.622463 
0.923175 0.549371 0.412984 
0.862744 0.212885 0.629168 
0.128134 0.392714 0.794420 
0.148105 0.952475 0.542275 
0.418195 0.787539 0.615626 
0.397139 0.506728 0.739106 
0.470838 0.989649 0.354541 
0.397006 0.145060 0.795190 
0.993456 0.475963 0.367638 
0.945050 0.185528 0.560243 
0.084953 0.317800 0.800960 
0.101182 1.001465 0.486673 
0.321458 1.065123 0.312976 
0.259770 0.101419 0.800456 
1.051025 0.384395 0.308027 
0.998511 0.098791 0.505430 
0.580834 0.599988 0.656451 
0.076872 0.254957 0.800273 
0.093690 1.041090 0.439053 
0.255708 1.088891 0.292559 
0.202429 0.076238 0.803582 
1.068020 0.116176 0.413595 
1.082822 0.299268 0.287959 
1.103865 0.106632 0.341110 
0.660970 0.434132 0.686390 
0.691889 0.664961 0.559428 
0.553669 0.757415 0.577161 
0.522588 0.455453 0.726465 
0.826526 0.586018 0.515392 
0.781849 0.350016 0.643002 
0.736375 0.519494 0.612734 
0.389468 0.651146 0.693333 
0.305598 0.172789 0.803553 
0.364173 1.024649 0.377850 
0.426100 0.959598 0.446642 
0.372168 0.258098 0.789149 
0.341188 0.737980 0.665058 
0.336433 0.595693 0.732278 
0.495244 0.820368 0.556456 
0.458417 0.416699 0.744318 
0.263446 0.450653 0.777741 
0.287677 0.884829 0.579083 
0.525050 0.927489 0.427185 
0.457071 0.232880 0.775239 
0.302243 0.520949 0.759229 
0.311433 0.813359 0.622351 
0.218564 0.387088 0.787459 
0.243719 0.940903 0.538618 
0.916694 0.461011 0.485010 
0.915526 0.279924 0.561024 
0.415188 0.333858 0.771194 
0.464457 0.895281 0.498386 
0.392729 0.863438 0.567155 
0.358858 0.428092 0.764733 
0.101742 0.552778 0.766284 
0.112244 0.834960 0.649182 
0.215319 0.768963 0.677229 
0.210927 0.600571 0.744752 
0.072454 0.463508 0.787069 
0.086109 0.902976 0.591567 
0.636590 0.300197 0.723973 
0.695020 0.760327 0.471527 
0.563891 0.970906 0.286418 
0.478360 0.067936 0.788943 
0.194817 0.986959 0.495022 
0.170695 0.331872 0.797922 
0.247991 1.057775 0.373604 
0.198169 0.170996 0.801743 
0.443353 0.696149 0.654510 
0.419473 0.572477 0.715411 
0.247891 0.276431 0.802005 
0.287297 0.998041 0.462188 
1.009787 0.212014 0.475646 
1.015819 0.382602 0.394473 
0.162431 0.462844 0.781319 
0.183046 0.896943 0.591899 
0.483248 1.021187 0.274324 
0.395735 0.051615 0.794293 
0.404556 1.046394 0.295633 
0.331824 0.078394 0.803456 
0.056465 0.394301 0.796332 
0.069168 0.961090 0.547205 
0.124628 1.075262 0.378312 
0.097243 0.180906 0.804829 
0.146100 0.257583 0.802173 
0.173395 1.031983 0.437177 
0.624652 0.507183 0.675889 
0.639557 0.638348 0.603919 
0.570944 0.681590 0.610253 
0.553726 0.519190 0.693941 
0.760802 0.434835 0.632419 
0.792239 0.551802 0.564719 
0.666547 0.558743 0.634078 
0.613781 0.877789 0.413512 
0.539313 0.221834 0.762315 
0.878571 0.540049 0.484396 
0.846199 0.310796 0.611104 
0.713323 0.600017 0.586074 
0.698765 0.474264 0.657060 
0.817550 0.388154 0.610039 
0.721385 0.389250 0.674284 
0.757838 0.638037 0.536054 
0.496591 0.733824 0.609385 
0.479524 0.514064 0.716620 
0.891886 0.389922 0.556209 
0.858055 0.500331 0.537724 
0.964832 0.249400 0.522333 
1.060641 0.290996 0.356430 
0.609981 0.784647 0.524613 
0.560423 0.369130 0.729581 
0.647915 0.370871 0.705665 
0.694259 0.715484 0.518342 
0.518211 0.662686 0.642894 
0.482723 0.603728 0.681491 
0.182457 0.693420 0.719388 
0.629207 0.708624 0.567095 
0.597184 0.447520 0.707638 
0.102705 0.651835 0.737173 
0.103852 0.744358 0.706289 
0.753086 0.754682 0.414038 
0.677257 0.217313 0.722801 
1.130317 0.093310 0.280186 
0.514758 0.145625 0.780766 
0.593115 0.921642 0.350881 
0.745682 0.078669 0.709776 
0.835780 0.740193 0.304418 
0.803047 0.267658 0.656780 
0.855024 0.612762 0.447730 
0.897785 0.650634 0.331905 
0.819599 0.095131 0.666494 
0.123354 0.082302 0.806993 
0.156477 1.103492 0.293420 
0.957079 0.078794 0.571616 
1.014991 0.483343 0.301819 
0.966130 0.559664 0.314989 
0.901483 0.095401 0.620584 
0.968413 0.448226 0.432650 
0.594063 0.259676 0.743637 
0.663709 0.813552 0.437621 
0.069416 1.120923 0.268991 
0.052632 0.055827 0.806034 
0.053424 0.117697 0.804503 
0.069382 1.102581 0.325811 
0.758756 0.824040 0.299492 
0.658495 0.070149 0.742478 
0.664892 0.900737 0.290570 
0.570881 0.069823 0.767341 
0.794778 0.757127 0.352708 
0.705848 0.133974 0.723305 
0.693824 0.842834 0.366403 
0.606806 0.160911 0.751314 
0.879052 0.628276 0.398676 
-0.430167 0.448407 0.754840 
-0.401220 0.933941 0.505880 
-0.931031 0.409443 0.515454 
-0.312996 0.301002 0.791552 
-0.238061 0.258847 0.803525 
-0.200852 0.189835 0.804644 
-0.150493 0.124153 0.805038 
-0.330002 0.819106 0.620372 
-0.819938 0.333196 0.626834 
-0.740294 0.743595 0.462208 
-0.275875 0.620624 0.736346 
-0.623553 0.282422 0.733448 
-0.172391 0.601698 0.746782 
-0.633454 0.181927 0.744116 
-0.587166 0.907482 0.414297 
-0.905434 0.591144 0.411393 
-0.190257 0.493040 0.777022 
-0.479030 0.206574 0.779562 
-0.466639 1.007472 0.346053 
-1.002491 0.465012 0.355823 
-0.800577 0.556257 0.558282 
-0.551314 0.808234 0.553585 
-0.156256 0.946700 0.564600 
-0.946990 0.163803 0.565066 
-0.148256 0.411440 0.792874 
-0.399009 0.150047 0.791942 
-0.386880 1.050637 0.306949 
-1.048934 0.387260 0.320437 
-0.120258 1.030616 0.455770 
-1.036500 0.121758 0.463439 
-0.327151 0.082981 0.800221 
-0.083244 0.327851 0.804412 
-0.599418 0.605369 0.658809 
-0.313848 1.075488 0.302445 
-1.069666 0.314427 0.313464 
-0.091146 1.061619 0.410017 
-1.064055 0.094596 0.413836 
-0.216802 0.098950 0.806509 
-0.103403 0.204532 0.807989 
-0.143885 0.055100 0.804308 
-0.427780 0.632369 0.700801 
-0.630950 0.433024 0.703455 
-0.468602 0.748947 0.633209 
-0.741321 0.478096 0.633234 
-0.536675 0.334938 0.752440 
-0.329937 0.538694 0.740480 
-0.494590 0.497438 0.730052 
-0.685179 0.707052 0.536185 
-0.193677 0.993631 0.493085 
-0.994938 0.199181 0.498533 
-0.285986 0.941042 0.546908 
-0.939135 0.294069 0.547480 
-0.645246 0.785454 0.504617 
[...]
POINT_DATA 2044
SCALARS u float 1
LOOKUP_TABLE default
5.417625
5.212379
5.418770
5.455952
3.990318
5.394598
5.360855
5.190269
5.294541
5.446469
5.458319
5.288657
5.254698
5.344401
5.397053
5.495566
5.575663
5.388673
5.447436
5.489184
5.596588
5.506050
5.471015
5.534235
5.264939
5.299171
5.355510
5.383744
5.369296
5.382735
5.420782
5.346655
5.377914
5.509853
5.481734
5.514664
5.639626
5.611431
5.771073
5.630043
5.689177
5.778065
5.590920
5.590482
5.577324
5.509778
5.500346
5.397917
5.393247
5.233983
5.201810
5.190804
5.212338
5.471647
5.370576
5.393878
5.483491
5.575383
5.589017
5.544485
5.687609
5.577506
5.414969
5.340697
5.398233
5.074603
4.494493
3.899739
3.435433
2.666250
1.930500
1.076631
0.420380
0.773941
1.302744
2.029277
2.748255
3.382392
3.709221
3.935843
3.921774
3.599033
3.195007
2.534846
1.906444
1.284246
0.578167
0.406885
1.072791
1.766498
2.380408
3.239741
3.749402
4.369907
4.826759
3.960036
3.645044
3.253969
2.673921
2.011690
1.319018
0.535857
0.303837
1.020820
1.884680
2.602703
3.196616
3.893071
4.464393
5.016296
3.835230
3.494352
3.074853
2.598648
2.031300
1.266319
0.533569
0.543441
1.226156
1.972882
2.748778
3.276614
4.004801
4.557124
5.118861
2.878650
1.726825
3.315083
3.887818
4.247870
4.407517
4.852283
3.666649
0.803955
0.701880
4.043931
1.393541
4.703960
1.445722
1.059195
1.901121
4.603531
2.370091
2.205065
2.805244
2.147718
0.409959
4.682728
2.087329
4.962239
3.119161
2.802681
3.244292
4.799526
3.174575
5.192314
3.471280
1.573265
3.255783
3.719421
4.949200
3.473997
4.272379
5.146391
4.832671
1.250654
2.946123
2.670243
0.174197
3.851264
1.933627
2.402740
0.736024
2.579794
4.509775
4.010606
1.914570
1.324763
0.212990
2.866955
0.665454
1.357524
2.488828
4.232698
1.494589
0.660748
1.883758
2.041352
2.964786
3.904468
2.929210
1.340459
3.426737
2.752329
1.119348
1.049941
1.648880
1.250492
0.447747
1.766879
2.235626
0.475418
3.821125
5.079757
1.594261
3.271114
2.518550
4.373890
3.248920
1.374564
0.307179
2.444199
3.844559
3.779892
4.617147
1.644863
2.361890
5.221154
2.328997
5.048991
2.667080
2.299739
2.828897
4.266486
3.508920
3.032376
3.732842
1.317218
2.288801
2.074766
0.739521
2.163067
3.166803
1.991034
4.285069
0.834159
4.066413
2.427136
2.689477
1.822659
2.471169
1.630232
3.422175
1.996156
0.190229
3.261869
3.583939
3.382605
4.734530
3.382200
0.229031
0.801805
3.376250
1.515488
0.810529
0.506544
2.765314
0.750587
0.306928
0.855285
4.369154
0.600691
5.267285
1.131142
4.627008
0.942554
5.131180
1.979568
4.303976
5.120376
1.621166
3.705664
4.829312
3.149235
5.376959
5.228006
2.578676
4.446779
0.315620
3.981599
4.997982
3.920711
3.822954
4.674473
5.260874
0.279298
5.091453
0.861633
4.900127
0.690050
4.659987
0.448150
4.704114
0.479555
3.779011
3.965539
2.047812
2.583149
3.119487
3.568977
2.162279
2.301234
4.214946
0.385142
0.250411
0.567011
0.196618
4.719599
4.670002
1.249732
1.321351
4.970023
5.095234
3.420945
3.356814
3.109045
3.126082
1.972232
2.128758
5.113417
5.341593
3.910480
4.105562
2.760910
2.662243
2.013754
5.148284
5.294143
4.246830
4.341955
3.312008
3.331170
3.746365
1.021527
1.078996
2.334721
2.326518
0.360269
0.571625
0.553013
3.366479
3.666907
3.787573
3.464250
3.478060
3.817587
3.755659
2.779229
2.883376
4.261816
4.191276
2.663500
2.661690
3.974956
4.000132
4.562594
4.338377
1.750660
1.438620
3.178780
3.034961
3.740719
3.626853
5.264522
5.193510
4.646618
4.667004
5.270712
5.374990
1.192277
1.166406
2.228231
2.382980
4.681140
4.887785
4.309279
4.612170
2.997571
3.200120
4.376999
4.213722
2.597725
4.855035
4.810826
3.049983
3.032301
3.455427
3.540059
5.465556
5.326347
4.883534
5.131149
4.903015
4.762141
1.505193
1.452313
2.164851
2.033278
0.273247
0.301625
1.139202
1.954935
1.990272
0.933655
1.213400
0.799904
0.803285
0.770617
0.393718
0.472318
2.362707
2.737529
2.786498
1.401345
0.816001
2.943519
1.841774
1.862341
0.936734
1.072084
2.624737
2.788706
4.863646
1.684090
1.611534
5.302100
5.190343
0.656812
0.634894
2.196155
2.134094
0.286944
0.314854
0.683901
0.561627
0.792331
0.995307
4.691424
4.877109
2.304036
2.139205
1.590621
1.563916
1.515800
1.514149
5.266726
5.090519
5.324304
5.128414
1.943798
0.793765
0.702663
1.461588
1.568038
0.901029
0.374973
0.352376
1.224555
1.202185
3.880474
4.010032
0.407602
3.613079
3.655944
2.097729
2.721371
3.109342
2.098027
2.232677
3.918771
0.126155
0.433898
0.433529
0.320684
4.444147
4.479105
1.351012
1.311326
4.789080
4.807168
3.219642
3.038101
3.086502
3.170193
2.089897
1.966804
5.013193
5.076796
3.963358
4.139007
2.543475
2.674085
1.645487
5.108319
5.115557
4.265998
4.476334
2.975132
2.996496
0.811058
0.915411
2.054889
2.229714
0.366691
0.429684
0.381587
3.435397
3.710041
3.854717
3.403582
3.357313
3.646907
3.721436
2.621079
2.636817
3.979167
3.929352
2.648191
2.576196
3.927605
3.848951
4.238835
4.206768
1.667901
1.395893
2.906790
2.989012
3.312005
3.501761
4.921215
4.978183
4.442913
4.333813
5.194362
5.036839
1.116933
0.994509
2.413051
2.476280
4.538344
4.594128
4.359672
4.461731
3.062942
2.976276
4.125604
4.101603
2.506212
2.674323
4.543560
4.649757
3.165303
3.137039
3.452693
3.580637
5.208060
5.178513
4.991394
5.056573
4.711241
4.694063
1.310440
1.362157
1.941277
1.783721
0.173267
0.205312
1.012683
1.862322
1.931116
0.880224
1.025332
0.666893
0.586819
0.617658
0.173863
0.479316
2.426030
2.660457
1.131271
0.682295
1.616363
1.805551
0.756988
1.021827
2.166596
2.344026
2.575117
4.567181
1.549641
1.441689
5.008306
4.998705
0.691922
0.529295
2.149338
2.150950
0.212776
0.445713
0.723141
0.595797
0.768045
0.901017
4.803323
4.942228
2.211572
2.275667
1.704307
1.596168
1.445701
1.273067
5.348992
5.241969
5.313300
5.247585
1.911028
0.655114
0.817705
1.730606
1.629354
0.924285
0.264472
0.397736
1.410773
1.129492
3.474976
3.426118
3.794378
3.457047
2.664552
3.458930
1.752056
3.871299
4.052474
4.258038
4.643068
5.121205
3.664651
0.684193
0.771406
3.982046
1.147677
4.506088
1.026349
2.080219
1.174265
4.483316
2.305942
3.107189
2.372516
0.291932
2.221861
4.740056
2.068696
3.009489
4.719840
3.579428
2.752734
4.924580
3.101878
4.982055
3.582119
1.605662
4.046779
3.026821
5.138338
3.438583
4.751464
4.175567
2.932505
1.100944
2.862563
0.311383
1.889713
3.448757
2.197242
1.228015
4.500576
2.634312
4.031895
1.879022
1.549895
0.321003
3.139751
0.463202
2.670871
1.356758
4.185179
1.325693
0.689437
2.127327
1.983950
3.192110
4.076775
2.947871
1.350346
3.679872
0.993752
2.974311
0.994934
1.799179
0.418675
1.359454
2.570771
1.735446
0.400665
3.854035
5.145973
1.598228
3.521100
2.465196
4.543546
3.117479
0.785637
1.849049
2.408948
3.878072
3.652987
4.387686
1.779482
2.511796
5.231253
2.311551
5.072088
2.726632
2.363507
3.002367
4.518437
3.367832
2.864922
4.002744
2.296597
1.240025
0.828285
2.374242
2.878374
2.164183
1.952525
4.247620
0.739640
2.267160
3.730298
1.661902
2.638822
3.213340
3.285237
1.391478
2.432129
0.396002
3.359750
2.532634
3.336112
0.280181
3.467769
0.772885
4.348978
1.027634
1.633843
0.494645
0.660063
2.839033
0.297931
0.915552
0.403223
4.324204
1.095756
4.722209
4.942127
0.897569
4.074922
1.661272
1.539374
5.005513
5.192220
3.736343
2.994931
5.203092
5.087217
2.225826
0.313600
4.084553
3.921940
5.305749
3.729265
4.961659
3.179319
5.024870
0.229768
5.155675
0.839394
1.537237
4.631610
0.536737
0.383154
4.663324
5.163503
4.513586
1.833253
2.278007
2.233361
2.189116
2.083813
2.684495
2.737494
2.769911
2.777713
3.496199
3.676868
1.760917
1.630777
1.598689
3.578171
3.628636
1.739002
3.598929
3.834365
3.509919
3.651394
1.523939
3.691866
4.001338
3.788033
4.116305
4.106425
4.303847
1.902462
2.091053
4.150996
4.203605
4.214237
4.271193
3.971175
3.997459
1.662486
1.966853
2.229405
2.123026
2.230237
2.206093
1.714001
2.265698
4.142893
4.398732
4.320411
4.578604
1.779930
4.490410
1.979535
4.444628
4.500431
4.584219
4.474004
4.639328
1.852757
1.868905
3.124798
3.132857
2.821023
2.964593
1.847269
4.631368
4.596254
2.800939
3.128846
3.029383
1.766489
2.937333
4.457949
4.607447
4.555981
4.471939
3.152956
3.086097
2.972965
2.801875
4.727186
1.950217
1.965544
1.673163
1.646308
3.164390
2.883700
3.158717
3.261567
1.737822
1.888415
4.708209
2.016604
2.408258
4.610542
4.622644
4.584187
4.544878
3.621171
1.889868
4.807437
2.181495
1.829699
4.630664
1.688657
4.555550
1.722828
1.658729
3.729149
4.512716
2.331250
5.052603
4.872952
3.506843
3.535208
2.814728
5.063485
4.604019
4.740060
1.975000
5.035791
1.830192
2.657030
1.650484
1.754887
4.742624
4.922692
4.936841
1.854016
4.844234
1.914479
3.566293
2.770984
2.707928
4.943170
4.817329
3.595207
3.935326
2.451481
1.686803
3.753071
3.561803
3.754459
4.882927
4.851685
4.925601
4.853537
2.970068
2.247406
3.595209
1.620186
2.237036
2.804516
3.857840
2.278329
2.928096
1.864212
2.152444
1.823324
1.745066
3.646586
4.862957
1.715481
3.906064
3.805289
2.249261
3.615545
4.813159
2.253805
3.973700
3.753183
2.537655
2.553218
3.173511
2.321895
1.679318
3.581862
1.877177
1.878896
1.787671
3.318753
3.644891
3.314786
4.926098
4.333430
3.826266
3.710501
4.967463
4.915081
1.902907
2.358049
4.840228
4.038795
3.331918
5.113868
1.839527
5.171222
1.787239
5.075544
5.126592
3.039570
3.101057
4.921622
5.186334
4.989768
1.918993
1.759720
1.845448
2.222202
4.062010
4.795965
2.371687
4.944164
5.234492
4.132274
4.324487
4.234685
4.881137
4.841229
5.009087
4.840111
1.760325
2.808837
3.089810
4.296022
4.984162
2.942028
4.369079
4.447312
3.161128
1.812622
1.902854
4.257350
4.193409
4.957250
4.201592
5.057687
2.707355
4.261464
5.059094
5.039631
2.613709
5.254255
5.125513
5.152687
4.925907
2.597137
4.979546
2.534156
3.601405
5.110363
4.929663
4.984644
3.189883
1.755783
2.186412
1.869305
4.523159
2.314231
4.571475
1.757250
4.263011
1.962721
4.213048
3.353281
1.872731
3.151512
3.131832
1.733845
1.935406
2.664330
1.602572
1.729542
4.049041
2.696488
4.162698
4.979499
4.983758
4.966508
4.953949
3.365470
4.339340
4.337953
4.370048
4.603627
2.460013
3.225385
2.591243
1.975084
4.769313
1.853183
1.848610
3.859690
1.884287
3.633866
2.480117
5.053787
1.773724
2.979417
3.097329
4.748837
5.198239
3.286553
1.798793
1.856132
1.740964
5.144759
4.820805
3.591005
2.751867
1.662580
4.413597
1.740082
2.599342
2.308743
1.701109
1.810498
1.650434
2.282076
1.824045
4.189105
4.656904
3.148135
4.219719
3.942188
2.609153
4.249017
4.053159
4.103750
2.130767
3.200699
3.360784
4.066277
3.313653
2.297991
3.193231
4.244490
4.125588
1.723025
1.710613
3.301441
4.516934
5.227113
2.669852
3.297394
5.136058
2.882912
2.570589
1.682370
5.053573
2.254377
4.649618
1.801681
4.184836
3.280926
3.815174
3.193582
2.081514
3.173027
1.732679
4.021953
4.140401
4.526273
4.482924
1.931904
1.728153
5.157888
2.724632
1.905284
1.700506
2.783288
3.606220
3.644063
1.702813
4.286048
3.879489
4.398759
5.253102
2.618310
5.013885
4.605055
3.735513
3.582145
2.644309
4.552540
4.567210
5.122102
2.779080
3.751672
4.171163
1.740780
3.992987
4.048617
1.977766
3.256977
2.624333
1.796736
1.749806
5.070250
1.730574
1.738331
5.070069
1.992959
1.733112
0.876722
4.182987
4.313390
2.909590
3.086485
2.501475
2.616275
1.385019
1.415668
1.941217
2.958760
0.859196
0.833991
3.658283
2.405051
2.954929
2.353257
1.402249
2.001743
1.894780
3.078975
2.358313
1.077627
1.011692
1.987894
3.551493
4.107315
3.733502
2.758315
3.738113
4.445822
4.508082
3.709340
4.496283
4.353892
4.596838
3.930843
3.811563
4.510770
3.841835
2.558986
3.960373
4.010830
3.666936
3.800704
3.206869
4.274363
4.451461
3.557199
4.398250
4.583945
4.404356
3.633535
2.554250
3.885765
4.404612
3.755516
2.406725
1.507005
2.314210
2.186594
1.618863
1.509029
0.846563
1.694985
1.668745
2.286419
1.369811
1.560953
2.700155
0.883136
2.589175
1.850768
1.928769
2.615723
1.649789
2.329814
2.170538
2.430294
2.647804
0.941310
3.358692
4.149560
3.858492
3.283306
3.264648
3.779265
3.242579
4.080435
2.695687
3.839199
4.233704
1.058339
0.977459
1.407244
1.033021
3.125242
2.518705
1.475120
0.954019
1.842486
2.967448
2.200201
2.861292
2.884881
0.401262
0.433595
1.343268
0.427032
1.220796
2.150786
2.090056
1.362873
0.683677
0.552534
2.070796
1.322220
1.461278
0.462834
3.756732
3.499383
2.284348
2.238483
3.130882
3.280050
3.748677
3.656564
2.930158
3.423679
3.374439
3.555463
2.889498
4.168713
3.584762
3.522541
4.058037
2.114246
3.874397
4.070095
4.214493
4.363764
2.226568
3.876078
3.577822
3.400493
2.746525
3.794597
1.484424
1.696702
0.879793
2.921268
1.474971
1.775843
1.566730
0.933297
1.949256
2.640026
2.441850
1.448413
1.382922
1.768102
1.475209
2.748879
2.362546
0.469813
1.527743
2.256750
1.160261
0.663518
1.734349
2.076879
2.646448
2.450193
1.797543
1.380661
2.185128
2.998437
0.803644
3.327434
2.003127
3.084356
2.084134
2.644498
1.203244
3.982250
1.371468
0.763843
1.632315
1.274556
2.037457
2.744645
0.643759
3.591148
2.933608
3.465064
3.996620
3.719428
4.282355
4.523574
3.781805
4.336691
4.126744
4.291306
4.161541
0.830818
4.090070
4.122514
2.484394
2.561904
2.210175
1.513756
1.609112
1.386082
2.258565
1.348777
0.860686
0.841685
0.862016
2.283022
0.770347
1.422755
2.645406
1.846030
1.540658
1.925810
1.841505
2.553319
1.992155
2.357525
2.964602
2.791594
1.580657
0.906395
1.618973
1.751516
1.374983
2.210611
1.525066
3.475715
2.710942
3.210995
2.857304
3.498778
3.470723
3.427744
3.012083
1.421178
2.046390
1.873044
3.014158
1.600571
1.052068
3.586122
2.193394
2.105010
2.144519
2.573998
1.178612
1.147117
2.885164
1.115570
1.448810
0.407327
0.676489
0.373086
1.723183
2.464683
1.502140
3.223779
3.014493
1.590316
4.069444
4.334871
4.240658
4.292511
3.684561
4.229380
3.625595
3.751846
4.250427
3.772164
3.948358
4.091495
3.689605
3.705325
4.069374
4.323354
4.174993
0.461130
0.816014
1.350011
3.730231
1.930902
1.532089
1.679231
1.353146
1.034833
2.963098
3.420955
2.852151
3.805893
3.477955
3.075679
3.895948
3.535330
2.958194
3.781139
3.738604
0.844480
0.849007
2.135600
3.309531
1.435122
2.601154
1.379666
1.044628
2.443050
0.860527
0.542070
0.343440
0.978664
0.583968
0.906482
0.970162
1.067984
1.193294
2.778116
1.807741
2.001599
3.204242
4.119509
2.386068
1.322722
0.431219
1.573658
0.763846
2.134873
1.229282
4.005491
2.465751
3.673926
1.757957
1.660820
2.881327
2.711575
2.896429
2.211695
3.125442
3.218209
1.568887
1.471345
3.423590
3.014664
2.549701
1.958944
2.220891
3.627504
3.505025
1.793726
1.721662
1.993719
1.745068
1.780392
3.765066
2.400398
2.943118
3.480630
1.730922
1.922566
1.591918
2.143803
2.063547
1.888338
2.397959
3.024718
2.370841
3.144878
2.745542
2.172088
1.761218
2.016151
2.433754
2.770298
1.893356
2.184348
1.783246
1.993155
3.221264
2.347380
2.685286
3.669677
2.949715
1.900821
1.790619
1.917395
1.850473
1.524410
2.686903
2.024901
2.512478
2.872299
3.676330
2.753202
2.235741
1.800330
1.824009
1.700923
1.735982
1.938578
1.661204
1.848272
1.664338
1.703854
1.786993
1.634918
2.040311
2.866111
2.540016
1.971461
2.304850
3.259648
1.811448
1.798890
2.009499
2.132129
3.777532
3.274180
2.842401
2.825934
2.091699
2.015513
1.782216
1.738336
2.146211
2.142609
3.089114
3.016557
2.542821
3.235931
2.732509
2.414958
2.304120
2.847994
4.227477
2.400932
1.899005
2.973257
3.420913
2.640123
2.110913
1.706041
1.878634
1.448240
3.636045
2.914494
3.556987
2.386366
1.912158
2.386856
1.795370
2.194031
2.050337
2.937987
1.830454
1.504495
3.560352
1.650476
2.777303
2.161560
2.754599
2.852294
1.995318
2.382358
2.166566
1.661152
1.889330
2.034245
1.899132
1.731545
3.532021
2.353209
2.000576
2.793660
2.660099
3.648790
2.369479
1.829155
1.810506
2.165870
1.917020
1.522411
1.785293
1.907265
2.275396
2.760449
1.764287
2.306340
1.986567
2.654862
3.065814
3.585051
3.753440
3.328953
3.764591
3.011704
2.405716
3.172797
2.205693
3.666957
3.068154
3.483648
2.780739
2.517721
2.611729
3.675476
2.671063
2.843575
2.743427
3.381809
2.523041
2.998619
3.027760
2.191216
1.715108
1.680829
1.757385
2.770536
1.707948
2.593396
2.016937
1.535641
1.798999
2.114721
2.592408
1.591373
1.716544
1.675345
1.841547
1.760434
2.095856
2.152344
2.421800
1.644774
2.805645
3.180230
2.479736
2.619295
3.018664
3.620605
2.278927
2.065831
1.918227
2.317880
1.537052
1.894711
1.694901
2.328544
2.422834
2.424132
1.902324
1.948684
3.189171
3.983288
3.377288
2.863253
2.417531
2.914460
1.920334
3.468406
2.926302
3.665055
3.731796
1.835439
2.001033
3.059281
3.372500
3.210952
3.840159
3.935651
2.972906
3.052907
2.411703
2.233366
2.558634
1.935345
1.795652
2.223913
2.594369
2.587279
2.311096
3.596531
4.067170
3.604354
2.604097
3.070580
2.545314
2.940794
1.966012
2.095338
2.059906
2.965953
1.745452
2.313954
3.790641
1.832366
2.129473
2.712849
2.610988
3.427827
1.806297
1.440498
2.757936
1.668814
1.562797
3.723835
3.817001
2.295855
1.763490
2.617336
2.545527
2.046071
2.324263
2.217691
1.510238
3.450548
2.474173
1.725543
2.905303
2.939960
3.570565
1.701789
1.396677
2.191614
2.362497
1.872008
1.930178
3.077097
2.525257
3.993060
3.674473
2.277023
2.336339
1.890008
2.567742
2.950045
3.432858
2.463532
2.391748
1.733351
1.746823
2.541321
1.478396
2.733443
2.898801
3.125303
2.347714
2.917704
2.391172
1.809579
3.318289
3.135568
1.651434
1.575550
1.456184
1.749637
2.310648
2.510328
2.730094
1.674988
2.807205
2.327008
1.857740
1.459783
2.694158
1.939310
1.731361
1.697520
2.592362
3.117734
1.667614
2.181509
1.685245
3.200137
2.691446
3.061953
3.233010
2.504345
3.823718
2.899979
2.405133
2.930371
1.737107
1.533342
1.873590
2.124961
2.525636
1.953637
3.064654
1.684088
1.545167
1.585351
2.186876
1.697375
3.510753
3.039149
2.045601
1.908532
3.670966
3.142810
3.091429
1.428150
3.501387
3.090063
1.655245
1.885891
3.572909
2.990709
1.514388
1.685539
3.592372
2.195327
1.693445
1.860070
1.803003
2.031680
2.974847
3.162708
3.084301
3.177723
2.792327
2.428736
2.901592
3.295092
1.764989
1.831878
2.665114
2.307994
2.744342
1.982909
1.568476
2.112251
1.441477
1.528846
1.638946
1.443839
1.722052
1.857651
3.244700
3.307170
2.031351
2.221002
1.723401
4.362933
4.264805
4.274472
3.916506
4.637586
4.227368
3.996108
3.989441
3.892070
4.235258
2.624150
1.944442
2.355532
3.060681
1.577522
3.676351
2.570255
1.888012
2.372974
2.843152
1.480344
3.319991
3.850658
4.018323
4.500730
4.284056
4.088774
3.669632
4.263851
3.673079
3.545572
4.072942
3.189643
3.948520
4.056773
3.660211
3.798882
3.111160
2.960927
4.240061
4.469442
3.991543
3.466140
3.617445
3.172647
3.974969
2.378967
2.542622
2.083101
1.709745
1.161621
1.563259
2.785729
3.237076
2.213843
2.696770
3.978845
3.788129
3.573497
3.757126
1.908432
3.492715
3.311835
1.916971
1.764416
1.925028
2.613001
1.192862
1.027012
1.358343
1.839998
1.600892
2.519396
1.671713
2.053113
1.397499
1.766659
1.399895
1.237617
1.048253
1.369532
2.429286
1.139388
1.455084
1.062303
1.862364
1.057425
1.978209
2.059184
0.917325
1.404129
1.559840
1.150902
