# vtk DataFile Version 2.0
Unstructured Grid Example
ASCII
DATASET UNSTRUCTURED_GRID
POINTS 2044 float
1.089466 0.000918 0.141540 
0.000376 1.086005 0.136226 
-1.087326 0.001300 0.142909 
0.001848 -1.086177 0.144938 
-0.001102 0.001285 0.876679 
1.082700 -0.105462 0.141727 
1.065580 -0.209645 0.141606 
1.038245 -0.315301 0.136009 
1.002568 -0.412196 0.140415 
0.958637 -0.506702 0.145624 
0.904024 -0.597764 0.146345 
0.840873 -0.684073 0.140165 
0.767152 -0.763524 0.139962 
0.688196 -0.836429 0.142721 
0.604550 -0.898905 0.144498 
0.515077 -0.957394 0.145764 
0.420342 -1.006918 0.146235 
0.316944 -1.040620 0.141516 
0.214053 -1.065908 0.144023 
0.108224 -1.082819 0.144915 
-0.100822 -1.084894 0.147872 
-0.207674 -1.066694 0.146366 
-0.312548 -1.041848 0.144531 
-0.413940 -1.006884 0.146260 
-0.507173 -0.956856 0.139948 
-0.599272 -0.902049 0.141190 
-0.686077 -0.840731 0.141923 
-0.764608 -0.769686 0.143061 
-0.837797 -0.690161 0.142244 
-0.901738 -0.601937 0.143496 
-0.957190 -0.511778 0.144137 
-1.002996 -0.415278 0.141376 
-1.038924 -0.313249 0.142760 
-1.067725 -0.213053 0.145328 
-1.083268 -0.105553 0.144537 
-1.084945 0.109178 0.144467 
-1.066590 0.213363 0.150623 
-1.039820 0.315152 0.150311 
-1.008141 0.416390 0.153559 
-0.960500 0.510843 0.150166 
-0.907668 0.605009 0.150564 
-0.845514 0.692637 0.152462 
-0.770668 0.769553 0.148059 
-0.690599 0.840702 0.148712 
-0.604262 0.902445 0.149358 
-0.513196 0.957851 0.146588 
-0.416026 1.005873 0.145144 
-0.315070 1.038841 0.143224 
-0.211522 1.066896 0.141781 
-0.106282 1.078495 0.138424 
0.106897 1.078779 0.137049 
0.214737 1.063862 0.135840 
0.317520 1.039514 0.135624 
0.418889 1.006526 0.143036 
0.513392 0.958586 0.141112 
0.605419 0.901506 0.142841 
0.692645 0.835819 0.146241 
0.771780 0.765741 0.148576 
0.844686 0.686286 0.148360 
0.905544 0.601312 0.147607 
0.962259 0.511564 0.151114 
1.005457 0.416228 0.148115 
1.040012 0.316160 0.142971 
1.068054 0.212773 0.138995 
1.084643 0.107899 0.140492 
1.073914 0.000583 0.233671 
1.045696 -0.002134 0.317889 
1.009443 -0.002127 0.398761 
0.968367 -0.000758 0.479094 
0.913481 -0.001920 0.547498 
0.850398 -0.001805 0.612127 
0.779523 -0.001728 0.666981 
0.703879 -0.003350 0.719239 
0.619997 -0.003044 0.754151 
0.541322 -0.002130 0.793870 
0.454287 -0.002575 0.821634 
0.364399 -0.001854 0.840949 
0.274377 -0.001186 0.853622 
0.183005 -0.001334 0.866787 
0.091896 0.000264 0.873690 
-0.001873 0.093751 0.874060 
-0.001924 0.184203 0.870097 
-0.001593 0.274334 0.859499 
0.000632 0.365478 0.847448 
0.001245 0.454649 0.825441 
0.002661 0.540754 0.794741 
0.004013 0.624265 0.758845 
0.004475 0.704086 0.718465 
0.004860 0.777724 0.666852 
0.004496 0.845229 0.608215 
0.004117 0.905448 0.540985 
0.001315 0.965471 0.473761 
0.001757 1.006465 0.395041 
0.000838 1.046025 0.313351 
0.001860 1.071417 0.226241 
-0.093397 0.001535 0.872885 
-0.185783 -0.000574 0.868511 
-0.277001 -0.002306 0.857275 
-0.366863 -0.001119 0.842770 
-0.455043 -0.001006 0.821942 
-0.542287 -0.001119 0.792943 
-0.627079 -0.002392 0.758344 
-0.706530 -0.002368 0.716176 
-0.781619 -0.002657 0.664631 
-0.852010 -0.001544 0.610058 
-0.911347 -0.001469 0.546251 
-0.961806 -0.001445 0.473903 
-1.009477 -0.000335 0.398536 
-1.046034 0.000831 0.316671 
-1.072369 0.002970 0.232450 
-0.001150 -0.090416 0.876895 
-0.001034 -0.182753 0.873494 
-0.002576 -0.273541 0.863425 
-0.002570 -0.362829 0.846096 
-0.000482 -0.450325 0.822782 
-0.001380 -0.537515 0.796771 
-0.000334 -0.621527 0.762700 
0.000686 -0.701160 0.722800 
0.000981 -0.776555 0.672112 
0.001225 -0.844080 0.615217 
0.003710 -0.906931 0.552506 
0.003735 -0.958336 0.477842 
0.003803 -1.008056 0.402954 
0.001527 -1.044720 0.320586 
0.002982 -1.073280 0.235581 
0.798356 0.458428 0.541369 
0.328731 0.361147 0.812579 
0.353896 0.904671 0.466487 
0.942929 0.335483 0.423792 
0.992326 0.280727 0.355411 
1.018937 0.216210 0.334001 
1.045127 0.208938 0.262936 
0.547536 0.830778 0.423332 
0.509900 0.314407 0.770039 
0.282335 0.679381 0.700485 
0.764544 0.661324 0.399765 
0.728107 0.287603 0.671279 
0.807994 0.667846 0.317590 
0.767086 0.181860 0.667056 
0.206820 0.521492 0.789006 
0.213458 0.835468 0.590246 
0.891866 0.533031 0.339642 
0.850445 0.211139 0.589142 
0.131095 0.401831 0.832215 
0.143798 0.932752 0.496965 
0.412765 0.775521 0.580011 
0.399372 0.510743 0.744714 
0.453627 0.954350 0.281643 
0.406663 0.148394 0.830657 
0.955733 0.458954 0.290263 
0.925142 0.182743 0.508882 
0.087345 0.327462 0.849509 
0.097668 0.977048 0.434880 
0.307349 1.024175 0.239990 
0.268110 0.105421 0.855823 
1.008789 0.369596 0.227859 
0.974226 0.097125 0.449082 
0.574982 0.594004 0.629920 
0.079892 0.263950 0.857057 
0.090590 1.010238 0.381052 
0.244494 1.045855 0.217187 
0.210603 0.079587 0.864372 
1.031005 0.113911 0.347776 
1.038555 0.287299 0.209356 
1.060833 0.103088 0.267366 
0.657519 0.431727 0.664679 
0.677186 0.651048 0.511427 
0.543087 0.743205 0.533394 
0.523317 0.455977 0.723518 
0.803362 0.572060 0.452892 
0.773336 0.348680 0.609914 
0.724790 0.513058 0.572367 
0.387769 0.649701 0.680511 
0.313889 0.177375 0.848176 
0.351147 0.988812 0.307812 
0.413313 0.930299 0.383338 
0.379007 0.263407 0.821878 
0.338824 0.733116 0.642265 
0.335799 0.598143 0.729489 
0.485416 0.803075 0.509825 
0.461991 0.420928 0.754701 
0.266958 0.456745 0.800692 
0.282371 0.868810 0.538438 
0.507557 0.897081 0.361070 
0.464317 0.237475 0.800236 
0.303237 0.525913 0.769759 
0.309083 0.804190 0.590414 
0.222844 0.394330 0.822562 
0.238845 0.920166 0.490716 
0.890758 0.451187 0.421784 
0.895696 0.276987 0.513264 
0.420683 0.338929 0.793687 
0.452023 0.872617 0.443584 
0.385279 0.845781 0.522419 
0.363733 0.433962 0.782996 
0.102591 0.559949 0.783388 
0.109271 0.827072 0.621270 
0.213143 0.764968 0.655590 
0.210349 0.606829 0.749567 
0.074321 0.472694 0.816872 
0.083006 0.890600 0.554151 
0.639408 0.301064 0.716100 
0.676574 0.739224 0.410047 
0.540368 0.931747 0.209078 
0.485963 0.070104 0.816002 
0.189973 0.961893 0.443119 
0.174629 0.339341 0.841649 
0.237811 1.021140 0.306254 
0.206120 0.177377 0.858280 
0.440134 0.690388 0.631117 
0.420137 0.573586 0.710136 
0.254079 0.283131 0.844251 
0.279145 0.968948 0.401289 
0.980179 0.208688 0.415816 
0.979612 0.370400 0.322322 
0.166022 0.470773 0.809072 
0.179135 0.882619 0.552863 
0.461898 0.978386 0.195356 
0.406232 0.053693 0.834062 
0.386911 1.004255 0.218927 
0.340647 0.080744 0.849725 
0.058051 0.404469 0.835674 
0.066132 0.940475 0.501730 
0.119518 1.038392 0.312691 
0.102099 0.187123 0.866372 
0.150408 0.264761 0.855136 
0.167770 1.001316 0.378999 
0.619964 0.504237 0.653264 
0.629445 0.629385 0.565769 
0.562974 0.673229 0.575432 
0.552021 0.517508 0.681085 
0.750723 0.430977 0.595725 
0.773471 0.541014 0.513075 
0.657748 0.552623 0.600542 
0.593490 0.848533 0.346626 
0.546122 0.224701 0.775082 
0.853315 0.526706 0.418407 
0.832893 0.310152 0.570306 
0.699933 0.589809 0.541597 
0.690673 0.470476 0.626094 
0.804190 0.385118 0.568545 
0.715143 0.387360 0.646205 
0.738330 0.623149 0.480740 
0.490845 0.724437 0.575848 
0.479989 0.515215 0.713494 
0.869958 0.384139 0.503175 
0.835301 0.490781 0.479352 
0.939785 0.246119 0.468115 
1.020919 0.281710 0.283322 
0.595463 0.765247 0.469935 
0.563940 0.371034 0.730220 
0.647810 0.370115 0.691507 
0.677289 0.697753 0.463919 
0.513907 0.656219 0.617247 
0.481365 0.601605 0.667382 
0.179712 0.694460 0.710925 
0.616402 0.695154 0.521866 
0.596032 0.445806 0.694528 
0.100309 0.656511 0.738535 
0.101308 0.742787 0.691464 
0.728058 0.732758 0.344312 
0.679728 0.219042 0.712617 
1.080915 0.089386 0.201325 
0.521473 0.148536 0.799380 
0.571316 0.888989 0.279098 
0.744530 0.080815 0.693288 
0.801532 0.712911 0.224950 
0.795476 0.267408 0.622605 
0.828887 0.595820 0.378290 
0.863067 0.627237 0.251624 
0.813194 0.095108 0.638552 
0.128668 0.085466 0.872226 
0.149738 1.060826 0.219755 
0.936158 0.078318 0.520011 
0.972858 0.464404 0.218716 
0.927530 0.538651 0.233660 
0.886133 0.095199 0.577648 
0.935675 0.435628 0.362277 
0.599061 0.261244 0.745563 
0.643379 0.790012 0.374459 
0.066198 1.075576 0.193202 
0.055522 0.057611 0.875279 
0.056471 0.121750 0.871912 
0.066621 1.061517 0.254129 
0.726587 0.792796 0.217989 
0.662826 0.071940 0.740920 
0.637199 0.865802 0.212352 
0.577393 0.071893 0.780959 
0.764025 0.732610 0.275502 
0.707254 0.136065 0.711366 
0.668532 0.813890 0.293516 
0.613133 0.162697 0.755737 
0.848703 0.608611 0.323767 
-0.435884 0.452167 0.759849 
-0.391294 0.908293 0.444979 
-0.906441 0.396525 0.451069 
-0.319616 0.308210 0.826415 
-0.243318 0.265998 0.848332 
-0.205854 0.195725 0.859261 
-0.154245 0.127639 0.867939 
-0.326577 0.809321 0.583570 
-0.809850 0.328608 0.587680 
-0.718107 0.720206 0.395010 
-0.279741 0.623495 0.731530 
-0.625358 0.283906 0.729687 
-0.176536 0.609305 0.751830 
-0.635956 0.184334 0.744292 
-0.567794 0.875345 0.339754 
-0.874042 0.570324 0.337907 
-0.196345 0.502565 0.796011 
-0.485328 0.210666 0.801687 
-0.448853 0.967735 0.269711 
-0.964567 0.447819 0.275926 
-0.783815 0.542248 0.501873 
-0.539103 0.788685 0.498885 
-0.155516 0.927031 0.513268 
-0.927216 0.160317 0.513565 
-0.153187 0.421749 0.825823 
-0.407323 0.154166 0.828422 
-0.371403 1.008326 0.228554 
-1.007243 0.371644 0.237134 
-0.117405 1.002226 0.392784 
-1.005969 0.118359 0.397662 
-0.335677 0.086242 0.848180 
-0.086210 0.337221 0.850450 
-0.593642 0.597427 0.624582 
-0.301410 1.032118 0.223377 
-1.028415 0.301778 0.230386 
-0.089070 1.028507 0.342648 
-1.030057 0.091265 0.345077 
-0.222787 0.102653 0.864649 
-0.104985 0.211604 0.866445 
-0.148503 0.056938 0.870367 
-0.427687 0.630317 0.682855 
-0.629414 0.431022 0.684543 
-0.464341 0.737819 0.593682 
-0.732968 0.470380 0.593698 
-0.540634 0.338187 0.756228 
-0.335908 0.543565 0.747021 
-0.497217 0.499029 0.720768 
-0.671349 0.689237 0.481094 
-0.190662 0.969083 0.433147 
-0.969914 0.194162 0.436613 
-0.281146 0.918495 0.490157 
-0.917282 0.286288 0.490521 
-0.629663 0.763313 0.442779 
[...]
POINT_DATA 2044
SCALARS u float 1
LOOKUP_TABLE default
5.417625
5.212379
5.418770
5.455952
3.990318
5.394598
5.360855
5.190269
5.294541
5.446469
5.458319
5.288657
5.254698
5.344401
5.397053
5.495566
5.575663
5.388673
5.447436
5.489184
5.596588
5.506050
5.471015
5.534235
5.264939
5.299171
5.355510
5.383744
5.369296
5.382735
5.420782
5.346655
5.377914
5.509853
5.481734
5.514664
5.639626
5.611431
5.771073
5.630043
5.689177
5.778065
5.590920
5.590482
5.577324
5.509778
5.500346
5.397917
5.393247
5.233983
5.201810
5.190804
5.212338
5.471647
5.370576
5.393878
5.483491
5.575383
5.589017
5.544485
5.687609
5.577506
5.414969
5.340697
5.398233
5.074603
4.494493
3.899739
3.435433
2.666250
1.930500
1.076631
0.420380
0.773941
1.302744
2.029277
2.748255
3.382392
3.709221
3.935843
3.921774
3.599033
3.195007
2.534846
1.906444
1.284246
0.578167
0.406885
1.072791
1.766498
2.380408
3.239741
3.749402
4.369907
4.826759
3.960036
3.645044
3.253969
2.673921
2.011690
1.319018
0.535857
0.303837
1.020820
1.884680
2.602703
3.196616
3.893071
4.464393
5.016296
3.835230
3.494352
3.074853
2.598648
2.031300
1.266319
0.533569
0.543441
1.226156
1.972882
2.748778
3.276614
4.004801
4.557124
5.118861
2.878650
1.726825
3.315083
3.887818
4.247870
4.407517
4.852283
3.666649
0.803955
0.701880
4.043931
1.393541
4.703960
1.445722
1.059195
1.901121
4.603531
2.370091
2.205065
2.805244
2.147718
0.409959
4.682728
2.087329
4.962239
3.119161
2.802681
3.244292
4.799526
3.174575
5.192314
3.471280
1.573265
3.255783
3.719421
4.949200
3.473997
4.272379
5.146391
4.832671
1.250654
2.946123
2.670243
0.174197
3.851264
1.933627
2.402740
0.736024
2.579794
4.509775
4.010606
1.914570
1.324763
0.212990
2.866955
0.665454
1.357524
2.488828
4.232698
1.494589
0.660748
1.883758
2.041352
2.964786
3.904468
2.929210
1.340459
3.426737
2.752329
1.119348
1.049941
1.648880
1.250492
0.447747
1.766879
2.235626
0.475418
3.821125
5.079757
1.594261
3.271114
2.518550
4.373890
3.248920
1.374564
0.307179
2.444199
3.844559
3.779892
4.617147
1.644863
2.361890
5.221154
2.328997
5.048991
2.667080
2.299739
2.828897
4.266486
3.508920
3.032376
3.732842
1.317218
2.288801
2.074766
0.739521
2.163067
3.166803
1.991034
4.285069
0.834159
4.066413
2.427136
2.689477
1.822659
2.471169
1.630232
3.422175
1.996156
0.190229
3.261869
3.583939
3.382605
4.734530
3.382200
0.229031
0.801805
3.376250
1.515488
0.810529
0.506544
2.765314
0.750587
0.306928
0.855285
4.369154
0.600691
5.267285
1.131142
4.627008
0.942554
5.131180
1.979568
4.303976
5.120376
1.621166
3.705664
4.829312
3.149235
5.376959
5.228006
2.578676
4.446779
0.315620
3.981599
4.997982
3.920711
3.822954
4.674473
5.260874
0.279298
5.091453
0.861633
4.900127
0.690050
4.659987
0.448150
4.704114
0.479555
3.779011
3.965539
2.047812
2.583149
3.119487
3.568977
2.162279
2.301234
4.214946
0.385142
0.250411
0.567011
0.196618
4.719599
4.670002
1.249732
1.321351
4.970023
5.095234
3.420945
3.356814
3.109045
3.126082
1.972232
2.128758
5.113417
5.341593
3.910480
4.105562
2.760910
2.662243
2.013754
5.148284
5.294143
4.246830
4.341955
3.312008
3.331170
3.746365
1.021527
1.078996
2.334721
2.326518
0.360269
0.571625
0.553013
3.366479
3.666907
3.787573
3.464250
3.478060
3.817587
3.755659
2.779229
2.883376
4.261816
4.191276
2.663500
2.661690
3.974956
4.000132
4.562594
4.338377
1.750660
1.438620
3.178780
3.034961
3.740719
3.626853
5.264522
5.193510
4.646618
4.667004
5.270712
5.374990
1.192277
1.166406
2.228231
2.382980
4.681140
4.887785
4.309279
4.612170
2.997571
3.200120
4.376999
4.213722
2.597725
4.855035
4.810826
3.049983
3.032301
3.455427
3.540059
5.465556
5.326347
4.883534
5.131149
4.903015
4.762141
1.505193
1.452313
2.164851
2.033278
0.273247
0.301625
1.139202
1.954935
1.990272
0.933655
1.213400
0.799904
0.803285
0.770617
0.393718
0.472318
2.362707
2.737529
2.786498
1.401345
0.816001
2.943519
1.841774
1.862341
0.936734
1.072084
2.624737
2.788706
4.863646
1.684090
1.611534
5.302100
5.190343
0.656812
0.634894
2.196155
2.134094
0.286944
0.314854
0.683901
0.561627
0.792331
0.995307
4.691424
4.877109
2.304036
2.139205
1.590621
1.563916
1.515800
1.514149
5.266726
5.090519
5.324304
5.128414
1.943798
0.793765
0.702663
1.461588
1.568038
0.901029
0.374973
0.352376
1.224555
1.202185
3.880474
4.010032
0.407602
3.613079
3.655944
2.097729
2.721371
3.109342
2.098027
2.232677
3.918771
0.126155
0.433898
0.433529
0.320684
4.444147
4.479105
1.351012
1.311326
4.789080
4.807168
3.219642
3.038101
3.086502
3.170193
2.089897
1.966804
5.013193
5.076796
3.963358
4.139007
2.543475
2.674085
1.645487
5.108319
5.115557
4.265998
4.476334
2.975132
2.996496
0.811058
0.915411
2.054889
2.229714
0.366691
0.429684
0.381587
3.435397
3.710041
3.854717
3.403582
3.357313
3.646907
3.721436
2.621079
2.636817
3.979167
3.929352
2.648191
2.576196
3.927605
3.848951
4.238835
4.206768
1.667901
1.395893
2.906790
2.989012
3.312005
3.501761
4.921215
4.978183
4.442913
4.333813
5.194362
5.036839
1.116933
0.994509
2.413051
2.476280
4.538344
4.594128
4.359672
4.461731
3.062942
2.976276
4.125604
4.101603
2.506212
2.674323
4.543560
4.649757
3.165303
3.137039
3.452693
3.580637
5.208060
5.178513
4.991394
5.056573
4.711241
4.694063
1.310440
1.362157
1.941277
1.783721
0.173267
0.205312
1.012683
1.862322
1.931116
0.880224
1.025332
0.666893
0.586819
0.617658
0.173863
0.479316
2.426030
2.660457
1.131271
0.682295
1.616363
1.805551
0.756988
1.021827
2.166596
2.344026
2.575117
4.567181
1.549641
1.441689
5.008306
4.998705
0.691922
0.529295
2.149338
2.150950
0.212776
0.445713
0.723141
0.595797
0.768045
0.901017
4.803323
4.942228
2.211572
2.275667
1.704307
1.596168
1.445701
1.273067
5.348992
5.241969
5.313300
5.247585
1.911028
0.655114
0.817705
1.730606
1.629354
0.924285
0.264472
0.397736
1.410773
1.129492
3.474976
3.426118
3.794378
3.457047
2.664552
3.458930
1.752056
3.871299
4.052474
4.258038
4.643068
5.121205
3.664651
0.684193
0.771406
3.982046
1.147677
4.506088
1.026349
2.080219
1.174265
4.483316
2.305942
3.107189
2.372516
0.291932
2.221861
4.740056
2.068696
3.009489
4.719840
3.579428
2.752734
4.924580
3.101878
4.982055
3.582119
1.605662
4.046779
3.026821
5.138338
3.438583
4.751464
4.175567
2.932505
1.100944
2.862563
0.311383
1.889713
3.448757
2.197242
1.228015
4.500576
2.634312
4.031895
1.879022
1.549895
0.321003
3.139751
0.463202
2.670871
1.356758
4.185179
1.325693
0.689437
2.127327
1.983950
3.192110
4.076775
2.947871
1.350346
3.679872
0.993752
2.974311
0.994934
1.799179
0.418675
1.359454
2.570771
1.735446
0.400665
3.854035
5.145973
1.598228
3.521100
2.465196
4.543546
3.117479
0.785637
1.849049
2.408948
3.878072
3.652987
4.387686
1.779482
2.511796
5.231253
2.311551
5.072088
2.726632
2.363507
3.002367
4.518437
3.367832
2.864922
4.002744
2.296597
1.240025
0.828285
2.374242
2.878374
2.164183
1.952525
4.247620
0.739640
2.267160
3.730298
1.661902
2.638822
3.213340
3.285237
1.391478
2.432129
0.396002
3.359750
2.532634
3.336112
0.280181
3.467769
0.772885
4.348978
1.027634
1.633843
0.494645
0.660063
2.839033
0.297931
0.915552
0.403223
4.324204
1.095756
4.722209
4.942127
0.897569
4.074922
1.661272
1.539374
5.005513
5.192220
3.736343
2.994931
5.203092
5.087217
2.225826
0.313600
4.084553
3.921940
5.305749
3.729265
4.961659
3.179319
5.024870
0.229768
5.155675
0.839394
1.537237
4.631610
0.536737
0.383154
4.663324
5.163503
4.513586
1.833253
2.278007
2.233361
2.189116
2.083813
2.684495
2.737494
2.769911
2.777713
3.496199
3.676868
1.760917
1.630777
1.598689
3.578171
3.628636
1.739002
3.598929
3.834365
3.509919
3.651394
1.523939
3.691866
4.001338
3.788033
4.116305
4.106425
4.303847
1.902462
2.091053
4.150996
4.203605
4.214237
4.271193
3.971175
3.997459
1.662486
1.966853
2.229405
2.123026
2.230237
2.206093
1.714001
2.265698
4.142893
4.398732
4.320411
4.578604
1.779930
4.490410
1.979535
4.444628
4.500431
4.584219
4.474004
4.639328
1.852757
1.868905
3.124798
3.132857
2.821023
2.964593
1.847269
4.631368
4.596254
2.800939
3.128846
3.029383
1.766489
2.937333
4.457949
4.607447
4.555981
4.471939
3.152956
3.086097
2.972965
2.801875
4.727186
1.950217
1.965544
1.673163
1.646308
3.164390
2.883700
3.158717
3.261567
1.737822
1.888415
4.708209
2.016604
2.408258
4.610542
4.622644
4.584187
4.544878
3.621171
1.889868
4.807437
2.181495
1.829699
4.630664
1.688657
4.555550
1.722828
1.658729
3.729149
4.512716
2.331250
5.052603
4.872952
3.506843
3.535208
2.814728
5.063485
4.604019
4.740060
1.975000
5.035791
1.830192
2.657030
1.650484
1.754887
4.742624
4.922692
4.936841
1.854016
4.844234
1.914479
3.566293
2.770984
2.707928
4.943170
4.817329
3.595207
3.935326
2.451481
1.686803
3.753071
3.561803
3.754459
4.882927
4.851685
4.925601
4.853537
2.970068
2.247406
3.595209
1.620186
2.237036
2.804516
3.857840
2.278329
2.928096
1.864212
2.152444
1.823324
1.745066
3.646586
4.862957
1.715481
3.906064
3.805289
2.249261
3.615545
4.813159
2.253805
3.973700
3.753183
2.537655
2.553218
3.173511
2.321895
1.679318
3.581862
1.877177
1.878896
1.787671
3.318753
3.644891
3.314786
4.926098
4.333430
3.826266
3.710501
4.967463
4.915081
1.902907
2.358049
4.840228
4.038795
3.331918
5.113868
1.839527
5.171222
1.787239
5.075544
5.126592
3.039570
3.101057
4.921622
5.186334
4.989768
1.918993
1.759720
1.845448
2.222202
4.062010
4.795965
2.371687
4.944164
5.234492
4.132274
4.324487
4.234685
4.881137
4.841229
5.009087
4.840111
1.760325
2.808837
3.089810
4.296022
4.984162
2.942028
4.369079
4.447312
3.161128
1.812622
1.902854
4.257350
4.193409
4.957250
4.201592
5.057687
2.707355
4.261464
5.059094
5.039631
2.613709
5.254255
5.125513
5.152687
4.925907
2.597137
4.979546
2.534156
3.601405
5.110363
4.929663
4.984644
3.189883
1.755783
2.186412
1.869305
4.523159
2.314231
4.571475
1.757250
4.263011
1.962721
4.213048
3.353281
1.872731
3.151512
3.131832
1.733845
1.935406
2.664330
1.602572
1.729542
4.049041
2.696488
4.162698
4.979499
4.983758
4.966508
4.953949
3.365470
4.339340
4.337953
4.370048
4.603627
2.460013
3.225385
2.591243
1.975084
4.769313
1.853183
1.848610
3.859690
1.884287
3.633866
2.480117
5.053787
1.773724
2.979417
3.097329
4.748837
5.198239
3.286553
1.798793
1.856132
1.740964
5.144759
4.820805
3.591005
2.751867
1.662580
4.413597
1.740082
2.599342
2.308743
1.701109
1.810498
1.650434
2.282076
1.824045
4.189105
4.656904
3.148135
4.219719
3.942188
2.609153
4.249017
4.053159
4.103750
2.130767
3.200699
3.360784
4.066277
3.313653
2.297991
3.193231
4.244490
4.125588
1.723025
1.710613
3.301441
4.516934
5.227113
2.669852
3.297394
5.136058
2.882912
2.570589
1.682370
5.053573
2.254377
4.649618
1.801681
4.184836
3.280926
3.815174
3.193582
2.081514
3.173027
1.732679
4.021953
4.140401
4.526273
4.482924
1.931904
1.728153
5.157888
2.724632
1.905284
1.700506
2.783288
3.606220
3.644063
1.702813
4.286048
3.879489
4.398759
5.253102
2.618310
5.013885
4.605055
3.735513
3.582145
2.644309
4.552540
4.567210
5.122102
2.779080
3.751672
4.171163
1.740780
3.992987
4.048617
1.977766
3.256977
2.624333
1.796736
1.749806
5.070250
1.730574
1.738331
5.070069
1.992959
1.733112
0.876722
4.182987
4.313390
2.909590
3.086485
2.501475
2.616275
1.385019
1.415668
1.941217
2.958760
0.859196
0.833991
3.658283
2.405051
2.954929
2.353257
1.402249
2.001743
1.894780
3.078975
2.358313
1.077627
1.011692
1.987894
3.551493
4.107315
3.733502
2.758315
3.738113
4.445822
4.508082
3.709340
4.496283
4.353892
4.596838
3.930843
3.811563
4.510770
3.841835
2.558986
3.960373
4.010830
3.666936
3.800704
3.206869
4.274363
4.451461
3.557199
4.398250
4.583945
4.404356
3.633535
2.554250
3.885765
4.404612
3.755516
2.406725
1.507005
2.314210
2.186594
1.618863
1.509029
0.846563
1.694985
1.668745
2.286419
1.369811
1.560953
2.700155
0.883136
2.589175
1.850768
1.928769
2.615723
1.649789
2.329814
2.170538
2.430294
2.647804
0.941310
3.358692
4.149560
3.858492
3.283306
3.264648
3.779265
3.242579
4.080435
2.695687
3.839199
4.233704
1.058339
0.977459
1.407244
1.033021
3.125242
2.518705
1.475120
0.954019
1.842486
2.967448
2.200201
2.861292
2.884881
0.401262
0.433595
1.343268
0.427032
1.220796
2.150786
2.090056
1.362873
0.683677
0.552534
2.070796
1.322220
1.461278
0.462834
3.756732
3.499383
2.284348
2.238483
3.130882
3.280050
3.748677
3.656564
2.930158
3.423679
3.374439
3.555463
2.889498
4.168713
3.584762
3.522541
4.058037
2.114246
3.874397
4.070095
4.214493
4.363764
2.226568
3.876078
3.577822
3.400493
2.746525
3.794597
1.484424
1.696702
0.879793
2.921268
1.474971
1.775843
1.566730
0.933297
1.949256
2.640026
2.441850
1.448413
1.382922
1.768102
1.475209
2.748879
2.362546
0.469813
1.527743
2.256750
1.160261
0.663518
1.734349
2.076879
2.646448
2.450193
1.797543
1.380661
2.185128
2.998437
0.803644
3.327434
2.003127
3.084356
2.084134
2.644498
1.203244
3.982250
1.371468
0.763843
1.632315
1.274556
2.037457
2.744645
0.643759
3.591148
2.933608
3.465064
3.996620
3.719428
4.282355
4.523574
3.781805
4.336691
4.126744
4.291306
4.161541
0.830818
4.090070
4.122514
2.484394
2.561904
2.210175
1.513756
1.609112
1.386082
2.258565
1.348777
0.860686
0.841685
0.862016
2.283022
0.770347
1.422755
2.645406
1.846030
1.540658
1.925810
1.841505
2.553319
1.992155
2.357525
2.964602
2.791594
1.580657
0.906395
1.618973
1.751516
1.374983
2.210611
1.525066
3.475715
2.710942
3.210995
2.857304
3.498778
3.470723
3.427744
3.012083
1.421178
2.046390
1.873044
3.014158
1.600571
1.052068
3.586122
2.193394
2.105010
2.144519
2.573998
1.178612
1.147117
2.885164
1.115570
1.448810
0.407327
0.676489
0.373086
1.723183
2.464683
1.502140
3.223779
3.014493
1.590316
4.069444
4.334871
4.240658
4.292511
3.684561
4.229380
3.625595
3.751846
4.250427
3.772164
3.948358
4.091495
3.689605
3.705325
4.069374
4.323354
4.174993
0.461130
0.816014
1.350011
3.730231
1.930902
1.532089
1.679231
1.353146
1.034833
2.963098
3.420955
2.852151
3.805893
3.477955
3.075679
3.895948
3.535330
2.958194
3.781139
3.738604
0.844480
0.849007
2.135600
3.309531
1.435122
2.601154
1.379666
1.044628
2.443050
0.860527
0.542070
0.343440
0.978664
0.583968
0.906482
0.970162
1.067984
1.193294
2.778116
1.807741
2.001599
3.204242
4.119509
2.386068
1.322722
0.431219
1.573658
0.763846
2.134873
1.229282
4.005491
2.465751
3.673926
1.757957
1.660820
2.881327
2.711575
2.896429
2.211695
3.125442
3.218209
1.568887
1.471345
3.423590
3.014664
2.549701
1.958944
2.220891
3.627504
3.505025
1.793726
1.721662
1.993719
1.745068
1.780392
3.765066
2.400398
2.943118
3.480630
1.730922
1.922566
1.591918
2.143803
2.063547
1.888338
2.397959
3.024718
2.370841
3.144878
2.745542
2.172088
1.761218
2.016151
2.433754
2.770298
1.893356
2.184348
1.783246
1.993155
3.221264
2.347380
2.685286
3.669677
2.949715
1.900821
1.790619
1.917395
1.850473
1.524410
2.686903
2.024901
2.512478
2.872299
3.676330
2.753202
2.235741
1.800330
1.824009
1.700923
1.735982
1.938578
1.661204
1.848272
1.664338
1.703854
1.786993
1.634918
2.040311
2.866111
2.540016
1.971461
2.304850
3.259648
1.811448
1.798890
2.009499
2.132129
3.777532
3.274180
2.842401
2.825934
2.091699
2.015513
1.782216
1.738336
2.146211
2.142609
3.089114
3.016557
2.542821
3.235931
2.732509
2.414958
2.304120
2.847994
4.227477
2.400932
1.899005
2.973257
3.420913
2.640123
2.110913
1.706041
1.878634
1.448240
3.636045
2.914494
3.556987
2.386366
1.912158
2.386856
1.795370
2.194031
2.050337
2.937987
1.830454
1.504495
3.560352
1.650476
2.777303
2.161560
2.754599
2.852294
1.995318
2.382358
2.166566
1.661152
1.889330
2.034245
1.899132
1.731545
3.532021
2.353209
2.000576
2.793660
2.660099
3.648790
2.369479
1.829155
1.810506
2.165870
1.917020
1.522411
1.785293
1.907265
2.275396
2.760449
1.764287
2.306340
1.986567
2.654862
3.065814
3.585051
3.753440
3.328953
3.764591
3.011704
2.405716
3.172797
2.205693
3.666957
3.068154
3.483648
2.780739
2.517721
2.611729
3.675476
2.671063
2.843575
2.743427
3.381809
2.523041
2.998619
3.027760
2.191216
1.715108
1.680829
1.757385
2.770536
1.707948
2.593396
2.016937
1.535641
1.798999
2.114721
2.592408
1.591373
1.716544
1.675345
1.841547
1.760434
2.095856
2.152344
2.421800
1.644774
2.805645
3.180230
2.479736
2.619295
3.018664
3.620605
2.278927
2.065831
1.918227
2.317880
1.537052
1.894711
1.694901
2.328544
2.422834
2.424132
1.902324
1.948684
3.189171
3.983288
3.377288
2.863253
2.417531
2.914460
1.920334
3.468406
2.926302
3.665055
3.731796
1.835439
2.001033
3.059281
3.372500
3.210952
3.840159
3.935651
2.972906
3.052907
2.411703
2.233366
2.558634
1.935345
1.795652
2.223913
2.594369
2.587279
2.311096
3.596531
4.067170
3.604354
2.604097
3.070580
2.545314
2.940794
1.966012
2.095338
2.059906
2.965953
1.745452
2.313954
3.790641
1.832366
2.129473
2.712849
2.610988
3.427827
1.806297
1.440498
2.757936
1.668814
1.562797
3.723835
3.817001
2.295855
1.763490
2.617336
2.545527
2.046071
2.324263
2.217691
1.510238
3.450548
2.474173
1.725543
2.905303
2.939960
3.570565
1.701789
1.396677
2.191614
2.362497
1.872008
1.930178
3.077097
2.525257
3.993060
3.674473
2.277023
2.336339
1.890008
2.567742
2.950045
3.432858
2.463532
2.391748
1.733351
1.746823
2.541321
1.478396
2.733443
2.898801
3.125303
2.347714
2.917704
2.391172
1.809579
3.318289
3.135568
1.651434
1.575550
1.456184
1.749637
2.310648
2.510328
2.730094
1.674988
2.807205
2.327008
1.857740
1.459783
2.694158
1.939310
1.731361
1.697520
2.592362
3.117734
1.667614
2.181509
1.685245
3.200137
2.691446
3.061953
3.233010
2.504345
3.823718
2.899979
2.405133
2.930371
1.737107
1.533342
1.873590
2.124961
2.525636
1.953637
3.064654
1.684088
1.545167
1.585351
2.186876
1.697375
3.510753
3.039149
2.045601
1.908532
3.670966
3.142810
3.091429
1.428150
3.501387
3.090063
1.655245
1.885891
3.572909
2.990709
1.514388
1.685539
3.592372
2.195327
1.693445
1.860070
1.803003
2.031680
2.974847
3.162708
3.084301
3.177723
2.792327
2.428736
2.901592
3.295092
1.764989
1.831878
2.665114
2.307994
2.744342
1.982909
1.568476
2.112251
1.441477
1.528846
1.638946
1.443839
1.722052
1.857651
3.244700
3.307170
2.031351
2.221002
1.723401
4.362933
4.264805
4.274472
3.916506
4.637586
4.227368
3.996108
3.989441
3.892070
4.235258
2.624150
1.944442
2.355532
3.060681
1.577522
3.676351
2.570255
1.888012
2.372974
2.843152
1.480344
3.319991
3.850658
4.018323
4.500730
4.284056
4.088774
3.669632
4.263851
3.673079
3.545572
4.072942
3.189643
3.948520
4.056773
3.660211
3.798882
3.111160
2.960927
4.240061
4.469442
3.991543
3.466140
3.617445
3.172647
3.974969
2.378967
2.542622
2.083101
1.709745
1.161621
1.563259
2.785729
3.237076
2.213843
2.696770
3.978845
3.788129
3.573497
3.757126
1.908432
3.492715
3.311835
1.916971
1.764416
1.925028
2.613001
1.192862
1.027012
1.358343
1.839998
1.600892
2.519396
1.671713
2.053113
1.397499
1.766659
1.399895
1.237617
1.048253
1.369532
2.429286
1.139388
1.455084
1.062303
1.862364
1.057425
1.978209
2.059184
0.917325
1.404129
1.559840
1.150902
