# vtk DataFile Version 2.0
Unstructured Grid Example
ASCII
DATASET UNSTRUCTURED_GRID
POINTS 2044 float
0.933681 -0.000681 -0.104920 
-0.000279 0.936246 -0.100981 
-0.935267 -0.000964 -0.105935 
-0.001370 -0.936119 -0.107439 
0.000817 -0.000952 1.091415 
0.930312 -0.092498 -0.105059 
0.917929 -0.184302 -0.104969 
0.896671 -0.271741 -0.100820 
0.865550 -0.360806 -0.104086 
0.825054 -0.445226 -0.107947 
0.777686 -0.524293 -0.108482 
0.722705 -0.597567 -0.103901 
0.662597 -0.665286 -0.103751 
0.594511 -0.726000 -0.105796 
0.519263 -0.781481 -0.107113 
0.439017 -0.825975 -0.108051 
0.354768 -0.862325 -0.108401 
0.270523 -0.894910 -0.104902 
0.181034 -0.917686 -0.106761 
0.090451 -0.930224 -0.107422 
-0.095938 -0.928686 -0.109614 
-0.185762 -0.917104 -0.108497 
-0.273781 -0.894001 -0.107137 
-0.359513 -0.862350 -0.108419 
-0.444877 -0.826374 -0.103740 
-0.523175 -0.779151 -0.104661 
-0.596081 -0.722811 -0.105204 
-0.664483 -0.660718 -0.106048 
-0.724985 -0.593054 -0.105442 
-0.779381 -0.521199 -0.106370 
-0.826126 -0.441463 -0.106845 
-0.865233 -0.358522 -0.104799 
-0.896168 -0.273262 -0.105825 
-0.916339 -0.181775 -0.107728 
-0.929891 -0.092431 -0.107142 
-0.928648 0.089744 -0.107090 
-0.917180 0.181545 -0.111654 
-0.895504 0.271851 -0.111422 
-0.861419 0.357697 -0.113830 
-0.823673 0.442156 -0.111315 
-0.774986 0.518923 -0.111610 
-0.719265 0.591219 -0.113016 
-0.659990 0.660817 -0.109753 
-0.592729 0.722832 -0.110237 
-0.519476 0.778857 -0.110715 
-0.440412 0.825636 -0.108663 
-0.357967 0.863100 -0.107592 
-0.271912 0.896229 -0.106168 
-0.182910 0.916953 -0.105099 
-0.091891 0.933429 -0.102610 
0.091435 0.933219 -0.101591 
0.180527 0.919203 -0.100695 
0.270096 0.895730 -0.100535 
0.355845 0.862615 -0.106029 
0.440266 0.825091 -0.104603 
0.518618 0.779554 -0.105885 
0.591213 0.726452 -0.108405 
0.659166 0.663643 -0.110136 
0.719879 0.595926 -0.109975 
0.776560 0.521663 -0.109418 
0.822369 0.441622 -0.112017 
0.863408 0.357818 -0.109794 
0.895361 0.271104 -0.105981 
0.916095 0.181982 -0.103033 
0.928871 0.090692 -0.104143 
0.936825 -0.000432 -0.002540 
0.932668 0.001582 0.104063 
0.918022 0.001576 0.209874 
0.890902 0.000562 0.311217 
0.858527 0.001423 0.414985 
0.817438 0.001338 0.513646 
0.768183 0.001281 0.610237 
0.709499 0.002483 0.698114 
0.645065 0.002256 0.786991 
0.566132 0.001579 0.859341 
0.484080 0.001909 0.926611 
0.396238 0.001375 0.985354 
0.302077 0.000879 1.033528 
0.204049 0.000989 1.065289 
0.102554 -0.000196 1.085246 
0.001388 0.101180 1.084971 
0.001426 0.203161 1.062836 
0.001181 0.302108 1.029171 
-0.000469 0.395438 0.980537 
-0.000923 0.483812 0.923789 
-0.001972 0.566553 0.858695 
-0.002975 0.641901 0.783511 
-0.003317 0.709346 0.698688 
-0.003602 0.769516 0.610332 
-0.003333 0.821270 0.516546 
-0.003052 0.864481 0.419812 
-0.000975 0.893049 0.315169 
-0.001303 0.920229 0.212631 
-0.000622 0.932425 0.107426 
-0.001379 0.938676 0.002968 
-0.101442 -0.001138 1.085843 
-0.201989 0.000426 1.064012 
-0.300132 0.001709 1.030820 
-0.394411 0.000829 0.984004 
-0.483519 0.000746 0.926383 
-0.565417 0.000830 0.860029 
-0.639815 0.001773 0.783882 
-0.707534 0.001755 0.700384 
-0.766629 0.001970 0.611979 
-0.816243 0.001144 0.515180 
-0.860108 0.001089 0.415909 
-0.895765 0.001071 0.315064 
-0.917996 0.000249 0.210041 
-0.932418 -0.000616 0.104965 
-0.937970 -0.002202 -0.001635 
0.000852 -0.103651 1.082870 
0.000766 -0.204235 1.060318 
0.001909 -0.302696 1.026261 
0.001905 -0.397401 0.981539 
0.000357 -0.487017 0.925760 
0.001023 -0.568954 0.857191 
0.000248 -0.643931 0.780653 
-0.000509 -0.711515 0.695474 
-0.000727 -0.770383 0.606433 
-0.000908 -0.822122 0.511355 
-0.002750 -0.863382 0.411272 
-0.002769 -0.898337 0.312145 
-0.002819 -0.919050 0.206766 
-0.001132 -0.933392 0.102064 
-0.002210 -0.937295 -0.003956 
0.746570 0.437128 0.396915 
0.345791 0.383432 0.901177 
0.327137 0.832912 0.305346 
0.854911 0.313112 0.235288 
0.889702 0.258358 0.152349 
0.907131 0.199072 0.125497 
0.916970 0.186669 0.036491 
0.498267 0.763636 0.244429 
0.526166 0.325171 0.808661 
0.274006 0.679284 0.663640 
0.692400 0.604189 0.202537 
0.719409 0.285680 0.596810 
0.714195 0.600528 0.092285 
0.755518 0.184934 0.590175 
0.211414 0.543154 0.841534 
0.206493 0.807093 0.492189 
0.796572 0.483296 0.116416 
0.813011 0.205824 0.467317 
0.140108 0.429578 0.947248 
0.130691 0.872722 0.359058 
0.396238 0.738945 0.471615 
0.406167 0.522962 0.761782 
0.401244 0.846915 0.059769 
0.436058 0.158543 0.938606 
0.840918 0.407185 0.054762 
0.864548 0.174266 0.352558 
0.094625 0.356868 0.997274 
0.086973 0.902733 0.277241 
0.264409 0.899545 0.017851 
0.293496 0.117604 1.024340 
0.880236 0.324554 -0.016140 
0.900313 0.092055 0.277578 
0.557172 0.575794 0.549170 
0.089085 0.291323 1.029885 
0.081154 0.916336 0.204518 
0.210362 0.914868 -0.012217 
0.235484 0.089782 1.049397 
0.918346 0.107018 0.147449 
0.903822 0.250868 -0.029883 
0.929859 0.092301 0.042918 
0.647015 0.424406 0.598598 
0.632436 0.608703 0.365327 
0.510881 0.699957 0.400184 
0.525536 0.457572 0.714550 
0.732859 0.529575 0.262666 
0.747424 0.344614 0.509207 
0.689529 0.493470 0.449505 
0.382598 0.645302 0.641485 
0.339122 0.191333 0.983991 
0.311503 0.879740 0.094643 
0.374391 0.841122 0.190664 
0.399822 0.279566 0.921492 
0.331627 0.718311 0.572894 
0.333869 0.605601 0.721000 
0.455503 0.750445 0.367900 
0.472868 0.433797 0.786303 
0.277650 0.475286 0.870548 
0.266224 0.820054 0.414729 
0.454317 0.804528 0.159843 
0.486370 0.251461 0.876316 
0.306263 0.541023 0.801808 
0.301930 0.776284 0.493210 
0.235870 0.416370 0.929401 
0.224009 0.857049 0.344921 
0.811820 0.421286 0.229347 
0.835342 0.268046 0.367902 
0.437409 0.354363 0.862145 
0.414178 0.803636 0.276785 
0.362601 0.792040 0.386259 
0.378571 0.451830 0.838581 
0.105176 0.581775 0.835446 
0.100224 0.803064 0.536318 
0.206521 0.752809 0.589729 
0.208591 0.625875 0.764225 
0.080002 0.500652 0.907584 
0.073564 0.852932 0.440270 
0.647984 0.303704 0.692139 
0.620432 0.674995 0.222925 
0.468773 0.812563 -0.026317 
0.509102 0.076701 0.898362 
0.175230 0.885604 0.285145 
0.186604 0.362073 0.974738 
0.206830 0.909635 0.101267 
0.230322 0.196800 1.030359 
0.430338 0.672854 0.559918 
0.422157 0.576962 0.694078 
0.272914 0.303524 0.972834 
0.254334 0.880399 0.215936 
0.890061 0.198566 0.233716 
0.869412 0.333263 0.102720 
0.176952 0.494905 0.893540 
0.167232 0.839021 0.434053 
0.396917 0.848117 -0.044993 
0.438181 0.060018 0.955101 
0.333208 0.875999 -0.014537 
0.367503 0.087895 0.990549 
0.062879 0.435417 0.955415 
0.056889 0.877729 0.363320 
0.103966 0.926173 0.112966 
0.116878 0.206047 1.053687 
0.163519 0.286607 1.016335 
0.150649 0.907975 0.201926 
0.605695 0.495268 0.584405 
0.598667 0.602106 0.449656 
0.538715 0.647782 0.469449 
0.546834 0.512387 0.641958 
0.720045 0.419235 0.484040 
0.716350 0.508180 0.355890 
0.630965 0.533995 0.498473 
0.531734 0.759489 0.143051 
0.566848 0.233427 0.813938 
0.776447 0.486095 0.217564 
0.792393 0.308194 0.446131 
0.659181 0.558741 0.406226 
0.666046 0.458947 0.531844 
0.763530 0.375877 0.442255 
0.696145 0.381606 0.560742 
0.678957 0.577834 0.312385 
0.473358 0.695867 0.473772 
0.481406 0.518718 0.703979 
0.803220 0.366538 0.341761 
0.766049 0.461714 0.301690 
0.863554 0.236134 0.303097 
0.900020 0.253449 0.060808 
0.551276 0.706201 0.303517 
0.574643 0.376830 0.732165 
0.647493 0.367812 0.648417 
0.625641 0.643787 0.298276 
0.500804 0.636535 0.539188 
0.477232 0.595143 0.624439 
0.171360 0.697625 0.685168 
0.577426 0.654159 0.384208 
0.592526 0.440589 0.654623 
0.093017 0.670741 0.742682 
0.093563 0.738005 0.646342 
0.651883 0.666028 0.132092 
0.687249 0.224304 0.681618 
0.930556 0.077441 -0.038698 
0.541914 0.157397 0.856034 
0.504967 0.789608 0.060619 
0.741023 0.087347 0.643105 
0.697294 0.629874 -0.016921 
0.772432 0.266648 0.518591 
0.749336 0.544256 0.166942 
0.757397 0.556027 0.007279 
0.793700 0.095037 0.553508 
0.144844 0.095093 1.070772 
0.129225 0.930967 -0.004452 
0.872481 0.076869 0.362944 
0.844622 0.406759 -0.034219 
0.810045 0.474695 -0.013878 
0.839411 0.094584 0.446969 
0.836033 0.397285 0.148089 
0.614273 0.266015 0.751425 
0.581503 0.718365 0.182217 
0.056404 0.937560 -0.037471 
0.064318 0.063040 1.086036 
0.065742 0.134087 1.077081 
0.058218 0.936532 0.035957 
0.628676 0.697703 -0.030078 
0.676006 0.077393 0.736178 
0.552909 0.759474 -0.025714 
0.597214 0.078193 0.822406 
0.670422 0.657989 0.040514 
0.711534 0.142429 0.675029 
0.591553 0.725798 0.071676 
0.632392 0.168134 0.769202 
0.756331 0.548758 0.095774 
-0.453283 0.463610 0.775095 
-0.361084 0.830227 0.259620 
-0.831599 0.357207 0.255105 
-0.339766 0.330151 0.932525 
-0.259317 0.287763 0.984705 
-0.221079 0.213651 1.025494 
-0.165664 0.138250 1.059385 
-0.316151 0.779541 0.471557 
-0.779149 0.314645 0.468510 
-0.650577 0.649021 0.190483 
-0.291508 0.632232 0.716872 
-0.630850 0.288421 0.718238 
-0.189152 0.632457 0.767193 
-0.643573 0.191661 0.744828 
-0.508832 0.777533 0.112873 
-0.778499 0.506956 0.114242 
-0.214876 0.531555 0.853803 
-0.504498 0.223121 0.869027 
-0.394722 0.846790 0.037355 
-0.849138 0.395488 0.032748 
-0.732797 0.499609 0.330185 
-0.501940 0.729187 0.332400 
-0.153264 0.867166 0.357034 
-0.867029 0.149705 0.356814 
-0.168195 0.453129 0.926106 
-0.432628 0.166705 0.939455 
-0.324295 0.879547 -0.010050 
-0.880350 0.324116 -0.016410 
-0.108721 0.915816 0.201078 
-0.913041 0.108013 0.197462 
-0.361627 0.096165 0.994149 
-0.095237 0.365741 0.990572 
-0.576063 0.573257 0.520406 
-0.263555 0.900117 -0.017277 
-0.902862 0.263282 -0.022473 
-0.082753 0.927728 0.137602 
-0.926579 0.081126 0.135801 
-0.241002 0.113921 1.041608 
-0.109797 0.233129 1.044364 
-0.162558 0.062530 1.071425 
-0.427401 0.624070 0.628234 
-0.624739 0.424929 0.626982 
-0.451372 0.703949 0.473377 
-0.707545 0.446895 0.473365 
-0.552685 0.348076 0.767758 
-0.354081 0.558390 0.766931 
-0.505212 0.503869 0.692511 
-0.629256 0.635016 0.313419 
-0.181483 0.894366 0.250718 
-0.893750 0.178888 0.248150 
-0.266417 0.849872 0.317429 
[...]
POINT_DATA 2044
SCALARS u float 1
LOOKUP_TABLE default
5.417625
5.212379
5.418770
5.455952
3.990318
5.394598
5.360855
5.190269
5.294541
5.446469
5.458319
5.288657
5.254698
5.344401
5.397053
5.495566
5.575663
5.388673
5.447436
5.489184
5.596588
5.506050
5.471015
5.534235
5.264939
5.299171
5.355510
5.383744
5.369296
5.382735
5.420782
5.346655
5.377914
5.509853
5.481734
5.514664
5.639626
5.611431
5.771073
5.630043
5.689177
5.778065
5.590920
5.590482
5.577324
5.509778
5.500346
5.397917
5.393247
5.233983
5.201810
5.190804
5.212338
5.471647
5.370576
5.393878
5.483491
5.575383
5.589017
5.544485
5.687609
5.577506
5.414969
5.340697
5.398233
5.074603
4.494493
3.899739
3.435433
2.666250
1.930500
1.076631
0.420380
0.773941
1.302744
2.029277
2.748255
3.382392
3.709221
3.935843
3.921774
3.599033
3.195007
2.534846
1.906444
1.284246
0.578167
0.406885
1.072791
1.766498
2.380408
3.239741
3.749402
4.369907
4.826759
3.960036
3.645044
3.253969
2.673921
2.011690
1.319018
0.535857
0.303837
1.020820
1.884680
2.602703
3.196616
3.893071
4.464393
5.016296
3.835230
3.494352
3.074853
2.598648
2.031300
1.266319
0.533569
0.543441
1.226156
1.972882
2.748778
3.276614
4.004801
4.557124
5.118861
2.878650
1.726825
3.315083
3.887818
4.247870
4.407517
4.852283
3.666649
0.803955
0.701880
4.043931
1.393541
4.703960
1.445722
1.059195
1.901121
4.603531
2.370091
2.205065
2.805244
2.147718
0.409959
4.682728
2.087329
4.962239
3.119161
2.802681
3.244292
4.799526
3.174575
5.192314
3.471280
1.573265
3.255783
3.719421
4.949200
3.473997
4.272379
5.146391
4.832671
1.250654
2.946123
2.670243
0.174197
3.851264
1.933627
2.402740
0.736024
2.579794
4.509775
4.010606
1.914570
1.324763
0.212990
2.866955
0.665454
1.357524
2.488828
4.232698
1.494589
0.660748
1.883758
2.041352
2.964786
3.904468
2.929210
1.340459
3.426737
2.752329
1.119348
1.049941
1.648880
1.250492
0.447747
1.766879
2.235626
0.475418
3.821125
5.079757
1.594261
3.271114
2.518550
4.373890
3.248920
1.374564
0.307179
2.444199
3.844559
3.779892
4.617147
1.644863
2.361890
5.221154
2.328997
5.048991
2.667080
2.299739
2.828897
4.266486
3.508920
3.032376
3.732842
1.317218
2.288801
2.074766
0.739521
2.163067
3.166803
1.991034
4.285069
0.834159
4.066413
2.427136
2.689477
1.822659
2.471169
1.630232
3.422175
1.996156
0.190229
3.261869
3.583939
3.382605
4.734530
3.382200
0.229031
0.801805
3.376250
1.515488
0.810529
0.506544
2.765314
0.750587
0.306928
0.855285
4.369154
0.600691
5.267285
1.131142
4.627008
0.942554
5.131180
1.979568
4.303976
5.120376
1.621166
3.705664
4.829312
3.149235
5.376959
5.228006
2.578676
4.446779
0.315620
3.981599
4.997982
3.920711
3.822954
4.674473
5.260874
0.279298
5.091453
0.861633
4.900127
0.690050
4.659987
0.448150
4.704114
0.479555
3.779011
3.965539
2.047812
2.583149
3.119487
3.568977
2.162279
2.301234
4.214946
0.385142
0.250411
0.567011
0.196618
4.719599
4.670002
1.249732
1.321351
4.970023
5.095234
3.420945
3.356814
3.109045
3.126082
1.972232
2.128758
5.113417
5.341593
3.910480
4.105562
2.760910
2.662243
2.013754
5.148284
5.294143
4.246830
4.341955
3.312008
3.331170
3.746365
1.021527
1.078996
2.334721
2.326518
0.360269
0.571625
0.553013
3.366479
3.666907
3.787573
3.464250
3.478060
3.817587
3.755659
2.779229
2.883376
4.261816
4.191276
2.663500
2.661690
3.974956
4.000132
4.562594
4.338377
1.750660
1.438620
3.178780
3.034961
3.740719
3.626853
5.264522
5.193510
4.646618
4.667004
5.270712
5.374990
1.192277
1.166406
2.228231
2.382980
4.681140
4.887785
4.309279
4.612170
2.997571
3.200120
4.376999
4.213722
2.597725
4.855035
4.810826
3.049983
3.032301
3.455427
3.540059
5.465556
5.326347
4.883534
5.131149
4.903015
4.762141
1.505193
1.452313
2.164851
2.033278
0.273247
0.301625
1.139202
1.954935
1.990272
0.933655
1.213400
0.799904
0.803285
0.770617
0.393718
0.472318
2.362707
2.737529
2.786498
1.401345
0.816001
2.943519
1.841774
1.862341
0.936734
1.072084
2.624737
2.788706
4.863646
1.684090
1.611534
5.302100
5.190343
0.656812
0.634894
2.196155
2.134094
0.286944
0.314854
0.683901
0.561627
0.792331
0.995307
4.691424
4.877109
2.304036
2.139205
1.590621
1.563916
1.515800
1.514149
5.266726
5.090519
5.324304
5.128414
1.943798
0.793765
0.702663
1.461588
1.568038
0.901029
0.374973
0.352376
1.224555
1.202185
3.880474
4.010032
0.407602
3.613079
3.655944
2.097729
2.721371
3.109342
2.098027
2.232677
3.918771
0.126155
0.433898
0.433529
0.320684
4.444147
4.479105
1.351012
1.311326
4.789080
4.807168
3.219642
3.038101
3.086502
3.170193
2.089897
1.966804
5.013193
5.076796
3.963358
4.139007
2.543475
2.674085
1.645487
5.108319
5.115557
4.265998
4.476334
2.975132
2.996496
0.811058
0.915411
2.054889
2.229714
0.366691
0.429684
0.381587
3.435397
3.710041
3.854717
3.403582
3.357313
3.646907
3.721436
2.621079
2.636817
3.979167
3.929352
2.648191
2.576196
3.927605
3.848951
4.238835
4.206768
1.667901
1.395893
2.906790
2.989012
3.312005
3.501761
4.921215
4.978183
4.442913
4.333813
5.194362
5.036839
1.116933
0.994509
2.413051
2.476280
4.538344
4.594128
4.359672
4.461731
3.062942
2.976276
4.125604
4.101603
2.506212
2.674323
4.543560
4.649757
3.165303
3.137039
3.452693
3.580637
5.208060
5.178513
4.991394
5.056573
4.711241
4.694063
1.310440
1.362157
1.941277
1.783721
0.173267
0.205312
1.012683
1.862322
1.931116
0.880224
1.025332
0.666893
0.586819
0.617658
0.173863
0.479316
2.426030
2.660457
1.131271
0.682295
1.616363
1.805551
0.756988
1.021827
2.166596
2.344026
2.575117
4.567181
1.549641
1.441689
5.008306
4.998705
0.691922
0.529295
2.149338
2.150950
0.212776
0.445713
0.723141
0.595797
0.768045
0.901017
4.803323
4.942228
2.211572
2.275667
1.704307
1.596168
1.445701
1.273067
5.348992
5.241969
5.313300
5.247585
1.911028
0.655114
0.817705
1.730606
1.629354
0.924285
0.264472
0.397736
1.410773
1.129492
3.474976
3.426118
3.794378
3.457047
2.664552
3.458930
1.752056
3.871299
4.052474
4.258038
4.643068
5.121205
3.664651
0.684193
0.771406
3.982046
1.147677
4.506088
1.026349
2.080219
1.174265
4.483316
2.305942
3.107189
2.372516
0.291932
2.221861
4.740056
2.068696
3.009489
4.719840
3.579428
2.752734
4.924580
3.101878
4.982055
3.582119
1.605662
4.046779
3.026821
5.138338
3.438583
4.751464
4.175567
2.932505
1.100944
2.862563
0.311383
1.889713
3.448757
2.197242
1.228015
4.500576
2.634312
4.031895
1.879022
1.549895
0.321003
3.139751
0.463202
2.670871
1.356758
4.185179
1.325693
0.689437
2.127327
1.983950
3.192110
4.076775
2.947871
1.350346
3.679872
0.993752
2.974311
0.994934
1.799179
0.418675
1.359454
2.570771
1.735446
0.400665
3.854035
5.145973
1.598228
3.521100
2.465196
4.543546
3.117479
0.785637
1.849049
2.408948
3.878072
3.652987
4.387686
1.779482
2.511796
5.231253
2.311551
5.072088
2.726632
2.363507
3.002367
4.518437
3.367832
2.864922
4.002744
2.296597
1.240025
0.828285
2.374242
2.878374
2.164183
1.952525
4.247620
0.739640
2.267160
3.730298
1.661902
2.638822
3.213340
3.285237
1.391478
2.432129
0.396002
3.359750
2.532634
3.336112
0.280181
3.467769
0.772885
4.348978
1.027634
1.633843
0.494645
0.660063
2.839033
0.297931
0.915552
0.403223
4.324204
1.095756
4.722209
4.942127
0.897569
4.074922
1.661272
1.539374
5.005513
5.192220
3.736343
2.994931
5.203092
5.087217
2.225826
0.313600
4.084553
3.921940
5.305749
3.729265
4.961659
3.179319
5.024870
0.229768
5.155675
0.839394
1.537237
4.631610
0.536737
0.383154
4.663324
5.163503
4.513586
1.833253
2.278007
2.233361
2.189116
2.083813
2.684495
2.737494
2.769911
2.777713
3.496199
3.676868
1.760917
1.630777
1.598689
3.578171
3.628636
1.739002
3.598929
3.834365
3.509919
3.651394
1.523939
3.691866
4.001338
3.788033
4.116305
4.106425
4.303847
1.902462
2.091053
4.150996
4.203605
4.214237
4.271193
3.971175
3.997459
1.662486
1.966853
2.229405
2.123026
2.230237
2.206093
1.714001
2.265698
4.142893
4.398732
4.320411
4.578604
1.779930
4.490410
1.979535
4.444628
4.500431
4.584219
4.474004
4.639328
1.852757
1.868905
3.124798
3.132857
2.821023
2.964593
1.847269
4.631368
4.596254
2.800939
3.128846
3.029383
1.766489
2.937333
4.457949
4.607447
4.555981
4.471939
3.152956
3.086097
2.972965
2.801875
4.727186
1.950217
1.965544
1.673163
1.646308
3.164390
2.883700
3.158717
3.261567
1.737822
1.888415
4.708209
2.016604
2.408258
4.610542
4.622644
4.584187
4.544878
3.621171
1.889868
4.807437
2.181495
1.829699
4.630664
1.688657
4.555550
1.722828
1.658729
3.729149
4.512716
2.331250
5.052603
4.872952
3.506843
3.535208
2.814728
5.063485
4.604019
4.740060
1.975000
5.035791
1.830192
2.657030
1.650484
1.754887
4.742624
4.922692
4.936841
1.854016
4.844234
1.914479
3.566293
2.770984
2.707928
4.943170
4.817329
3.595207
3.935326
2.451481
1.686803
3.753071
3.561803
3.754459
4.882927
4.851685
4.925601
4.853537
2.970068
2.247406
3.595209
1.620186
2.237036
2.804516
3.857840
2.278329
2.928096
1.864212
2.152444
1.823324
1.745066
3.646586
4.862957
1.715481
3.906064
3.805289
2.249261
3.615545
4.813159
2.253805
3.973700
3.753183
2.537655
2.553218
3.173511
2.321895
1.679318
3.581862
1.877177
1.878896
1.787671
3.318753
3.644891
3.314786
4.926098
4.333430
3.826266
3.710501
4.967463
4.915081
1.902907
2.358049
4.840228
4.038795
3.331918
5.113868
1.839527
5.171222
1.787239
5.075544
5.126592
3.039570
3.101057
4.921622
5.186334
4.989768
1.918993
1.759720
1.845448
2.222202
4.062010
4.795965
2.371687
4.944164
5.234492
4.132274
4.324487
4.234685
4.881137
4.841229
5.009087
4.840111
1.760325
2.808837
3.089810
4.296022
4.984162
2.942028
4.369079
4.447312
3.161128
1.812622
1.902854
4.257350
4.193409
4.957250
4.201592
5.057687
2.707355
4.261464
5.059094
5.039631
2.613709
5.254255
5.125513
5.152687
4.925907
2.597137
4.979546
2.534156
3.601405
5.110363
4.929663
4.984644
3.189883
1.755783
2.186412
1.869305
4.523159
2.314231
4.571475
1.757250
4.263011
1.962721
4.213048
3.353281
1.872731
3.151512
3.131832
1.733845
1.935406
2.664330
1.602572
1.729542
4.049041
2.696488
4.162698
4.979499
4.983758
4.966508
4.953949
3.365470
4.339340
4.337953
4.370048
4.603627
2.460013
3.225385
2.591243
1.975084
4.769313
1.853183
1.848610
3.859690
1.884287
3.633866
2.480117
5.053787
1.773724
2.979417
3.097329
4.748837
5.198239
3.286553
1.798793
1.856132
1.740964
5.144759
4.820805
3.591005
2.751867
1.662580
4.413597
1.740082
2.599342
2.308743
1.701109
1.810498
1.650434
2.282076
1.824045
4.189105
4.656904
3.148135
4.219719
3.942188
2.609153
4.249017
4.053159
4.103750
2.130767
3.200699
3.360784
4.066277
3.313653
2.297991
3.193231
4.244490
4.125588
1.723025
1.710613
3.301441
4.516934
5.227113
2.669852
3.297394
5.136058
2.882912
2.570589
1.682370
5.053573
2.254377
4.649618
1.801681
4.184836
3.280926
3.815174
3.193582
2.081514
3.173027
1.732679
4.021953
4.140401
4.526273
4.482924
1.931904
1.728153
5.157888
2.724632
1.905284
1.700506
2.783288
3.606220
3.644063
1.702813
4.286048
3.879489
4.398759
5.253102
2.618310
5.013885
4.605055
3.735513
3.582145
2.644309
4.552540
4.567210
5.122102
2.779080
3.751672
4.171163
1.740780
3.992987
4.048617
1.977766
3.256977
2.624333
1.796736
1.749806
5.070250
1.730574
1.738331
5.070069
1.992959
1.733112
0.876722
4.182987
4.313390
2.909590
3.086485
2.501475
2.616275
1.385019
1.415668
1.941217
2.958760
0.859196
0.833991
3.658283
2.405051
2.954929
2.353257
1.402249
2.001743
1.894780
3.078975
2.358313
1.077627
1.011692
1.987894
3.551493
4.107315
3.733502
2.758315
3.738113
4.445822
4.508082
3.709340
4.496283
4.353892
4.596838
3.930843
3.811563
4.510770
3.841835
2.558986
3.960373
4.010830
3.666936
3.800704
3.206869
4.274363
4.451461
3.557199
4.398250
4.583945
4.404356
3.633535
2.554250
3.885765
4.404612
3.755516
2.406725
1.507005
2.314210
2.186594
1.618863
1.509029
0.846563
1.694985
1.668745
2.286419
1.369811
1.560953
2.700155
0.883136
2.589175
1.850768
1.928769
2.615723
1.649789
2.329814
2.170538
2.430294
2.647804
0.941310
3.358692
4.149560
3.858492
3.283306
3.264648
3.779265
3.242579
4.080435
2.695687
3.839199
4.233704
1.058339
0.977459
1.407244
1.033021
3.125242
2.518705
1.475120
0.954019
1.842486
2.967448
2.200201
2.861292
2.884881
0.401262
0.433595
1.343268
0.427032
1.220796
2.150786
2.090056
1.362873
0.683677
0.552534
2.070796
1.322220
1.461278
0.462834
3.756732
3.499383
2.284348
2.238483
3.130882
3.280050
3.748677
3.656564
2.930158
3.423679
3.374439
3.555463
2.889498
4.168713
3.584762
3.522541
4.058037
2.114246
3.874397
4.070095
4.214493
4.363764
2.226568
3.876078
3.577822
3.400493
2.746525
3.794597
1.484424
1.696702
0.879793
2.921268
1.474971
1.775843
1.566730
0.933297
1.949256
2.640026
2.441850
1.448413
1.382922
1.768102
1.475209
2.748879
2.362546
0.469813
1.527743
2.256750
1.160261
0.663518
1.734349
2.076879
2.646448
2.450193
1.797543
1.380661
2.185128
2.998437
0.803644
3.327434
2.003127
3.084356
2.084134
2.644498
1.203244
3.982250
1.371468
0.763843
1.632315
1.274556
2.037457
2.744645
0.643759
3.591148
2.933608
3.465064
3.996620
3.719428
4.282355
4.523574
3.781805
4.336691
4.126744
4.291306
4.161541
0.830818
4.090070
4.122514
2.484394
2.561904
2.210175
1.513756
1.609112
1.386082
2.258565
1.348777
0.860686
0.841685
0.862016
2.283022
0.770347
1.422755
2.645406
1.846030
1.540658
1.925810
1.841505
2.553319
1.992155
2.357525
2.964602
2.791594
1.580657
0.906395
1.618973
1.751516
1.374983
2.210611
1.525066
3.475715
2.710942
3.210995
2.857304
3.498778
3.470723
3.427744
3.012083
1.421178
2.046390
1.873044
3.014158
1.600571
1.052068
3.586122
2.193394
2.105010
2.144519
2.573998
1.178612
1.147117
2.885164
1.115570
1.448810
0.407327
0.676489
0.373086
1.723183
2.464683
1.502140
3.223779
3.014493
1.590316
4.069444
4.334871
4.240658
4.292511
3.684561
4.229380
3.625595
3.751846
4.250427
3.772164
3.948358
4.091495
3.689605
3.705325
4.069374
4.323354
4.174993
0.461130
0.816014
1.350011
3.730231
1.930902
1.532089
1.679231
1.353146
1.034833
2.963098
3.420955
2.852151
3.805893
3.477955
3.075679
3.895948
3.535330
2.958194
3.781139
3.738604
0.844480
0.849007
2.135600
3.309531
1.435122
2.601154
1.379666
1.044628
2.443050
0.860527
0.542070
0.343440
0.978664
0.583968
0.906482
0.970162
1.067984
1.193294
2.778116
1.807741
2.001599
3.204242
4.119509
2.386068
1.322722
0.431219
1.573658
0.763846
2.134873
1.229282
4.005491
2.465751
3.673926
1.757957
1.660820
2.881327
2.711575
2.896429
2.211695
3.125442
3.218209
1.568887
1.471345
3.423590
3.014664
2.549701
1.958944
2.220891
3.627504
3.505025
1.793726
1.721662
1.993719
1.745068
1.780392
3.765066
2.400398
2.943118
3.480630
1.730922
1.922566
1.591918
2.143803
2.063547
1.888338
2.397959
3.024718
2.370841
3.144878
2.745542
2.172088
1.761218
2.016151
2.433754
2.770298
1.893356
2.184348
1.783246
1.993155
3.221264
2.347380
2.685286
3.669677
2.949715
1.900821
1.790619
1.917395
1.850473
1.524410
2.686903
2.024901
2.512478
2.872299
3.676330
2.753202
2.235741
1.800330
1.824009
1.700923
1.735982
1.938578
1.661204
1.848272
1.664338
1.703854
1.786993
1.634918
2.040311
2.866111
2.540016
1.971461
2.304850
3.259648
1.811448
1.798890
2.009499
2.132129
3.777532
3.274180
2.842401
2.825934
2.091699
2.015513
1.782216
1.738336
2.146211
2.142609
3.089114
3.016557
2.542821
3.235931
2.732509
2.414958
2.304120
2.847994
4.227477
2.400932
1.899005
2.973257
3.420913
2.640123
2.110913
1.706041
1.878634
1.448240
3.636045
2.914494
3.556987
2.386366
1.912158
2.386856
1.795370
2.194031
2.050337
2.937987
1.830454
1.504495
3.560352
1.650476
2.777303
2.161560
2.754599
2.852294
1.995318
2.382358
2.166566
1.661152
1.889330
2.034245
1.899132
1.731545
3.532021
2.353209
2.000576
2.793660
2.660099
3.648790
2.369479
1.829155
1.810506
2.165870
1.917020
1.522411
1.785293
1.907265
2.275396
2.760449
1.764287
2.306340
1.986567
2.654862
3.065814
3.585051
3.753440
3.328953
3.764591
3.011704
2.405716
3.172797
2.205693
3.666957
3.068154
3.483648
2.780739
2.517721
2.611729
3.675476
2.671063
2.843575
2.743427
3.381809
2.523041
2.998619
3.027760
2.191216
1.715108
1.680829
1.757385
2.770536
1.707948
2.593396
2.016937
1.535641
1.798999
2.114721
2.592408
1.591373
1.716544
1.675345
1.841547
1.760434
2.095856
2.152344
2.421800
1.644774
2.805645
3.180230
2.479736
2.619295
3.018664
3.620605
2.278927
2.065831
1.918227
2.317880
1.537052
1.894711
1.694901
2.328544
2.422834
2.424132
1.902324
1.948684
3.189171
3.983288
3.377288
2.863253
2.417531
2.914460
1.920334
3.468406
2.926302
3.665055
3.731796
1.835439
2.001033
3.059281
3.372500
3.210952
3.840159
3.935651
2.972906
3.052907
2.411703
2.233366
2.558634
1.935345
1.795652
2.223913
2.594369
2.587279
2.311096
3.596531
4.067170
3.604354
2.604097
3.070580
2.545314
2.940794
1.966012
2.095338
2.059906
2.965953
1.745452
2.313954
3.790641
1.832366
2.129473
2.712849
2.610988
3.427827
1.806297
1.440498
2.757936
1.668814
1.562797
3.723835
3.817001
2.295855
1.763490
2.617336
2.545527
2.046071
2.324263
2.217691
1.510238
3.450548
2.474173
1.725543
2.905303
2.939960
3.570565
1.701789
1.396677
2.191614
2.362497
1.872008
1.930178
3.077097
2.525257
3.993060
3.674473
2.277023
2.336339
1.890008
2.567742
2.950045
3.432858
2.463532
2.391748
1.733351
1.746823
2.541321
1.478396
2.733443
2.898801
3.125303
2.347714
2.917704
2.391172
1.809579
3.318289
3.135568
1.651434
1.575550
1.456184
1.749637
2.310648
2.510328
2.730094
1.674988
2.807205
2.327008
1.857740
1.459783
2.694158
1.939310
1.731361
1.697520
2.592362
3.117734
1.667614
2.181509
1.685245
3.200137
2.691446
3.061953
3.233010
2.504345
3.823718
2.899979
2.405133
2.930371
1.737107
1.533342
1.873590
2.124961
2.525636
1.953637
3.064654
1.684088
1.545167
1.585351
2.186876
1.697375
3.510753
3.039149
2.045601
1.908532
3.670966
3.142810
3.091429
1.428150
3.501387
3.090063
1.655245
1.885891
3.572909
2.990709
1.514388
1.685539
3.592372
2.195327
1.693445
1.860070
1.803003
2.031680
2.974847
3.162708
3.084301
3.177723
2.792327
2.428736
2.901592
3.295092
1.764989
1.831878
2.665114
2.307994
2.744342
1.982909
1.568476
2.112251
1.441477
1.528846
1.638946
1.443839
1.722052
1.857651
3.244700
3.307170
2.031351
2.221002
1.723401
4.362933
4.264805
4.274472
3.916506
4.637586
4.227368
3.996108
3.989441
3.892070
4.235258
2.624150
1.944442
2.355532
3.060681
1.577522
3.676351
2.570255
1.888012
2.372974
2.843152
1.480344
3.319991
3.850658
4.018323
4.500730
4.284056
4.088774
3.669632
4.263851
3.673079
3.545572
4.072942
3.189643
3.948520
4.056773
3.660211
3.798882
3.111160
2.960927
4.240061
4.469442
3.991543
3.466140
3.617445
3.172647
3.974969
2.378967
2.542622
2.083101
1.709745
1.161621
1.563259
2.785729
3.237076
2.213843
2.696770
3.978845
3.788129
3.573497
3.757126
1.908432
3.492715
3.311835
1.916971
1.764416
1.925028
2.613001
1.192862
1.027012
1.358343
1.839998
1.600892
2.519396
1.671713
2.053113
1.397499
1.766659
1.399895
1.237617
1.048253
1.369532
2.429286
1.139388
1.455084
1.062303
1.862364
1.057425
1.978209
2.059184
0.917325
1.404129
1.559840
1.150902
