# vtk DataFile Version 2.0
Unstructured Grid Example
ASCII
DATASET UNSTRUCTURED_GRID
POINTS 2044 float
1.000000 -0.000000 -0.000000 
-0.000000 1.000000 -0.000000 
-1.000000 -0.000000 -0.000000 
-0.000000 -1.000000 -0.000000 
0.000000 -0.000000 1.000000 
0.995185 -0.098017 -0.000000 
0.980785 -0.195090 -0.000000 
0.956940 -0.290285 -0.000000 
0.923880 -0.382683 -0.000000 
0.881921 -0.471397 -0.000000 
0.831470 -0.555570 -0.000000 
0.773010 -0.634393 -0.000000 
0.707107 -0.707107 -0.000000 
0.634393 -0.773010 -0.000000 
0.555570 -0.831470 -0.000000 
0.471397 -0.881921 -0.000000 
0.382683 -0.923880 -0.000000 
0.290285 -0.956940 -0.000000 
0.195090 -0.980785 -0.000000 
0.098017 -0.995185 -0.000000 
-0.098017 -0.995185 -0.000000 
-0.195090 -0.980785 -0.000000 
-0.290285 -0.956940 -0.000000 
-0.382683 -0.923880 -0.000000 
-0.471397 -0.881921 -0.000000 
-0.555570 -0.831470 -0.000000 
-0.634393 -0.773010 -0.000000 
-0.707107 -0.707107 -0.000000 
-0.773010 -0.634393 -0.000000 
-0.831470 -0.555570 -0.000000 
-0.881921 -0.471397 -0.000000 
-0.923880 -0.382683 -0.000000 
-0.956940 -0.290285 -0.000000 
-0.980785 -0.195090 -0.000000 
-0.995185 -0.098017 -0.000000 
-0.995185 0.098017 -0.000000 
-0.980785 0.195090 -0.000000 
-0.956940 0.290285 -0.000000 
-0.923880 0.382683 -0.000000 
-0.881921 0.471397 -0.000000 
-0.831470 0.555570 -0.000000 
-0.773010 0.634393 -0.000000 
-0.707107 0.707107 -0.000000 
-0.634393 0.773010 -0.000000 
-0.555570 0.831470 -0.000000 
-0.471397 0.881921 -0.000000 
-0.382683 0.923880 -0.000000 
-0.290285 0.956940 -0.000000 
-0.195090 0.980785 -0.000000 
-0.098017 0.995185 -0.000000 
0.098017 0.995185 -0.000000 
0.195090 0.980785 -0.000000 
0.290285 0.956940 -0.000000 
0.382683 0.923880 -0.000000 
0.471397 0.881921 -0.000000 
0.555570 0.831470 -0.000000 
0.634393 0.773010 -0.000000 
0.707107 0.707107 -0.000000 
0.773010 0.634393 -0.000000 
0.831470 0.555570 -0.000000 
0.881921 0.471397 -0.000000 
0.923880 0.382683 -0.000000 
0.956940 0.290285 -0.000000 
0.980785 0.195090 -0.000000 
0.995185 0.098017 -0.000000 
0.995185 -0.000000 0.098017 
0.980785 0.000000 0.195090 
0.956940 0.000000 0.290285 
0.923880 0.000000 0.382683 
0.881921 0.000000 0.471397 
0.831470 0.000000 0.555570 
0.773010 0.000000 0.634393 
0.707107 0.000000 0.707107 
0.634393 0.000000 0.773010 
0.555570 0.000000 0.831470 
0.471397 0.000000 0.881921 
0.382683 0.000000 0.923880 
0.290285 0.000000 0.956940 
0.195090 0.000000 0.980785 
0.098017 -0.000000 0.995185 
0.000000 0.098017 0.995185 
0.000000 0.195090 0.980785 
0.000000 0.290285 0.956940 
-0.000000 0.382683 0.923880 
-0.000000 0.471397 0.881921 
-0.000000 0.555570 0.831470 
-0.000000 0.634393 0.773010 
-0.000000 0.707107 0.707107 
-0.000000 0.773010 0.634393 
-0.000000 0.831470 0.555570 
-0.000000 0.881921 0.471397 
-0.000000 0.923880 0.382683 
-0.000000 0.956940 0.290285 
-0.000000 0.980785 0.195090 
-0.000000 0.995185 0.098017 
-0.098017 -0.000000 0.995185 
-0.195090 0.000000 0.980785 
-0.290285 0.000000 0.956940 
-0.382683 0.000000 0.923880 
-0.471397 0.000000 0.881921 
-0.555570 0.000000 0.831470 
-0.634393 0.000000 0.773010 
-0.707107 0.000000 0.707107 
-0.773010 0.000000 0.634393 
-0.831470 0.000000 0.555570 
-0.881921 0.000000 0.471397 
-0.923880 0.000000 0.382683 
-0.956940 0.000000 0.290285 
-0.980785 -0.000000 0.195090 
-0.995185 -0.000000 0.098017 
0.000000 -0.098017 0.995185 
0.000000 -0.195090 0.980785 
0.000000 -0.290285 0.956940 
0.000000 -0.382683 0.923880 
0.000000 -0.471397 0.881921 
0.000000 -0.555570 0.831470 
0.000000 -0.634393 0.773010 
-0.000000 -0.707107 0.707107 
-0.000000 -0.773010 0.634393 
-0.000000 -0.831470 0.555570 
-0.000000 -0.881921 0.471397 
-0.000000 -0.923880 0.382683 
-0.000000 -0.956940 0.290285 
-0.000000 -0.980785 0.195090 
-0.000000 -0.995185 0.098017 
0.768615 0.446195 0.458410 
0.338529 0.373945 0.863460 
0.338529 0.863460 0.373945 
0.892381 0.322635 0.315536 
0.933390 0.267881 0.238794 
0.954728 0.206368 0.214259 
0.971527 0.196149 0.132891 
0.519241 0.792219 0.320589 
0.519241 0.320589 0.792219 
0.277552 0.679325 0.679325 
0.723112 0.628512 0.286499 
0.723112 0.286499 0.628512 
0.754126 0.629186 0.188199 
0.760442 0.183626 0.622904 
0.209458 0.533932 0.819172 
0.209458 0.819172 0.533932 
0.837140 0.504468 0.211445 
0.828947 0.208087 0.519179 
0.136271 0.417766 0.898277 
0.136271 0.898277 0.417766 
0.403274 0.754516 0.517760 
0.403274 0.517760 0.754516 
0.423544 0.892651 0.154223 
0.423544 0.154223 0.892651 
0.889796 0.429223 0.155017 
0.890343 0.177875 0.419106 
0.091526 0.344349 0.934370 
0.091526 0.934370 0.344349 
0.282689 0.952601 0.112418 
0.282689 0.112418 0.952601 
0.934962 0.343729 0.087732 
0.931779 0.094213 0.350589 
0.564754 0.583546 0.583546 
0.085171 0.279670 0.956311 
0.085171 0.956311 0.279670 
0.224892 0.970630 0.085442 
0.224892 0.085442 0.970630 
0.966306 0.109952 0.232730 
0.961179 0.266377 0.071963 
0.985616 0.096893 0.138468 
0.651486 0.427523 0.626729 
0.651486 0.626729 0.427523 
0.524592 0.718368 0.456893 
0.524592 0.456893 0.718368 
0.762872 0.547661 0.343647 
0.758455 0.346345 0.552079 
0.704540 0.501808 0.501808 
0.384800 0.647175 0.658099 
0.328380 0.185391 0.926173 
0.328380 0.926173 0.185391 
0.390960 0.879086 0.272687 
0.390960 0.272687 0.879086 
0.334691 0.724614 0.602426 
0.334691 0.602426 0.724614 
0.468237 0.772850 0.428319 
0.468237 0.428319 0.772850 
0.273098 0.467393 0.840810 
0.273098 0.840810 0.467393 
0.476982 0.843928 0.245507 
0.476982 0.245507 0.843928 
0.304975 0.534591 0.788164 
0.304975 0.788164 0.534591 
0.230325 0.406987 0.883919 
0.230325 0.883919 0.406987 
0.845425 0.434015 0.311269 
0.861036 0.271852 0.429784 
0.430288 0.347793 0.833002 
0.430288 0.833002 0.347793 
0.372255 0.814918 0.444224 
0.372255 0.444224 0.814918 
0.104076 0.572483 0.813284 
0.104076 0.813284 0.572483 
0.209340 0.757985 0.617767 
0.209340 0.617767 0.757985 
0.077584 0.488750 0.868967 
0.077584 0.868967 0.488750 
0.644333 0.302580 0.702339 
0.644332 0.702338 0.302585 
0.499251 0.863301 0.073893 
0.499251 0.073893 0.863301 
0.181506 0.918081 0.352396 
0.181506 0.352396 0.918081 
0.220019 0.957104 0.188532 
0.220019 0.188532 0.957104 
0.434508 0.680318 0.590228 
0.421297 0.575524 0.700914 
0.264896 0.294842 0.918095 
0.264896 0.918095 0.294842 
0.928425 0.202875 0.311237 
0.916325 0.349073 0.196206 
0.172299 0.484632 0.857581 
0.172299 0.857581 0.484632 
0.424580 0.903574 0.057326 
0.424580 0.057326 0.903574 
0.356070 0.930599 0.084850 
0.356070 0.084850 0.930599 
0.060824 0.422242 0.904440 
0.060824 0.904440 0.422242 
0.110587 0.973946 0.197991 
0.110587 0.197991 0.973946 
0.157938 0.277307 0.947711 
0.157938 0.947711 0.277307 
0.611769 0.499086 0.613719 
0.611769 0.613719 0.499086 
0.549042 0.658615 0.514567 
0.549042 0.514567 0.658615 
0.733105 0.424234 0.531585 
0.740667 0.522158 0.422805 
0.642367 0.541925 0.541925 
0.558024 0.797396 0.229715 
0.558025 0.229712 0.797396 
0.809170 0.503384 0.303065 
0.809634 0.309028 0.498993 
0.676530 0.571967 0.463855 
0.676530 0.463855 0.571967 
0.780839 0.379811 0.496018 
0.704233 0.384055 0.597125 
0.704233 0.597125 0.384055 
0.480803 0.708030 0.517226 
0.480803 0.517226 0.708030 
0.831631 0.374030 0.410476 
0.795530 0.474088 0.377323 
0.896006 0.240385 0.373346 
0.951488 0.265480 0.155534 
0.570087 0.731337 0.374362 
0.570087 0.374362 0.731337 
0.647628 0.368792 0.666761 
0.647628 0.666761 0.368792 
0.506382 0.644915 0.572418 
0.478992 0.597894 0.642720 
0.174916 0.696278 0.696133 
0.594018 0.671611 0.442810 
0.594018 0.442810 0.671611 
0.096121 0.664683 0.740917 
0.096860 0.740041 0.665551 
0.684311 0.694435 0.222436 
0.684047 0.222064 0.694814 
0.994565 0.082526 0.063482 
0.533212 0.153625 0.831916 
0.533212 0.831915 0.153628 
0.742516 0.084566 0.664468 
0.741669 0.665224 0.086045 
0.782242 0.266972 0.562871 
0.783201 0.566207 0.256915 
0.802382 0.586341 0.111299 
0.801999 0.095068 0.589712 
0.137958 0.090995 0.986249 
0.137958 0.986249 0.090995 
0.899589 0.077486 0.429809 
0.899214 0.431299 0.073458 
0.860059 0.501922 0.091501 
0.859301 0.094846 0.502600 
0.878452 0.413608 0.239271 
0.607797 0.263984 0.748929 
0.607844 0.748866 0.264056 
0.060573 0.996315 0.060729 
0.060573 0.060729 0.996315 
0.061795 0.128835 0.989739 
0.061795 0.989739 0.128835 
0.670357 0.738185 0.075526 
0.670395 0.075072 0.738197 
0.588792 0.804738 0.075633 
0.588776 0.075511 0.804761 
0.710269 0.689756 0.140550 
0.709712 0.139720 0.690498 
0.624323 0.763300 0.166115 
0.624193 0.165819 0.763470 
0.795655 0.574238 0.192832 
-0.445876 0.458739 0.768605 
-0.373945 0.863460 0.338529 
-0.863460 0.373945 0.338529 
-0.331188 0.320810 0.887353 
-0.252506 0.278498 0.926650 
-0.214598 0.206020 0.954727 
-0.160803 0.133733 0.977884 
-0.320589 0.792219 0.519241 
-0.792219 0.320589 0.519241 
-0.679325 0.679325 0.277552 
-0.286499 0.628512 0.723112 
-0.628512 0.286499 0.723112 
-0.183781 0.622601 0.760653 
-0.640330 0.188542 0.744600 
-0.533932 0.819172 0.209458 
-0.819172 0.533932 0.209458 
-0.206988 0.519214 0.829201 
-0.496337 0.217819 0.840360 
-0.417766 0.898277 0.136271 
-0.898277 0.417766 0.136271 
-0.754516 0.517760 0.403274 
-0.517760 0.754516 0.403274 
-0.154223 0.892651 0.423544 
-0.892651 0.154223 0.423544 
-0.161806 0.439770 0.883414 
-0.421855 0.161367 0.892188 
-0.344349 0.934370 0.091526 
-0.934370 0.344349 0.091526 
-0.112418 0.952601 0.282689 
-0.952601 0.112418 0.282689 
-0.350580 0.091941 0.932009 
-0.091394 0.353600 0.930921 
-0.583546 0.583546 0.564754 
-0.279670 0.956311 0.085171 
-0.956311 0.279670 0.085171 
-0.085442 0.970630 0.224892 
-0.970630 0.085442 0.224892 
-0.233248 0.109124 0.966275 
-0.107749 0.223966 0.968622 
-0.156575 0.060149 0.985833 
-0.427523 0.626729 0.651486 
-0.626729 0.427523 0.651486 
-0.456893 0.718368 0.524592 
-0.718368 0.456893 0.524592 
-0.547555 0.343866 0.762850 
-0.346345 0.552079 0.758455 
-0.501808 0.501808 0.704540 
-0.647175 0.658099 0.384800 
-0.185391 0.926173 0.328380 
-0.926173 0.185391 0.328380 
-0.272687 0.879086 0.390960 
[...]
POINT_DATA 2044
SCALARS u float 1
LOOKUP_TABLE default
5.417625
5.212379
5.418770
5.455952
3.990318
5.394598
5.360855
5.190269
5.294541
5.446469
5.458319
5.288657
5.254698
5.344401
5.397053
5.495566
5.575663
5.388673
5.447436
5.489184
5.596588
5.506050
5.471015
5.534235
5.264939
5.299171
5.355510
5.383744
5.369296
5.382735
5.420782
5.346655
5.377914
5.509853
5.481734
5.514664
5.639626
5.611431
5.771073
5.630043
5.689177
5.778065
5.590920
5.590482
5.577324
5.509778
5.500346
5.397917
5.393247
5.233983
5.201810
5.190804
5.212338
5.471647
5.370576
5.393878
5.483491
5.575383
5.589017
5.544485
5.687609
5.577506
5.414969
5.340697
5.398233
5.074603
4.494493
3.899739
3.435433
2.666250
1.930500
1.076631
0.420380
0.773941
1.302744
2.029277
2.748255
3.382392
3.709221
3.935843
3.921774
3.599033
3.195007
2.534846
1.906444
1.284246
0.578167
0.406885
1.072791
1.766498
2.380408
3.239741
3.749402
4.369907
4.826759
3.960036
3.645044
3.253969
2.673921
2.011690
1.319018
0.535857
0.303837
1.020820
1.884680
2.602703
3.196616
3.893071
4.464393
5.016296
3.835230
3.494352
3.074853
2.598648
2.031300
1.266319
0.533569
0.543441
1.226156
1.972882
2.748778
3.276614
4.004801
4.557124
5.118861
2.878650
1.726825
3.315083
3.887818
4.247870
4.407517
4.852283
3.666649
0.803955
0.701880
4.043931
1.393541
4.703960
1.445722
1.059195
1.901121
4.603531
2.370091
2.205065
2.805244
2.147718
0.409959
4.682728
2.087329
4.962239
3.119161
2.802681
3.244292
4.799526
3.174575
5.192314
3.471280
1.573265
3.255783
3.719421
4.949200
3.473997
4.272379
5.146391
4.832671
1.250654
2.946123
2.670243
0.174197
3.851264
1.933627
2.402740
0.736024
2.579794
4.509775
4.010606
1.914570
1.324763
0.212990
2.866955
0.665454
1.357524
2.488828
4.232698
1.494589
0.660748
1.883758
2.041352
2.964786
3.904468
2.929210
1.340459
3.426737
2.752329
1.119348
1.049941
1.648880
1.250492
0.447747
1.766879
2.235626
0.475418
3.821125
5.079757
1.594261
3.271114
2.518550
4.373890
3.248920
1.374564
0.307179
2.444199
3.844559
3.779892
4.617147
1.644863
2.361890
5.221154
2.328997
5.048991
2.667080
2.299739
2.828897
4.266486
3.508920
3.032376
3.732842
1.317218
2.288801
2.074766
0.739521
2.163067
3.166803
1.991034
4.285069
0.834159
4.066413
2.427136
2.689477
1.822659
2.471169
1.630232
3.422175
1.996156
0.190229
3.261869
3.583939
3.382605
4.734530
3.382200
0.229031
0.801805
3.376250
1.515488
0.810529
0.506544
2.765314
0.750587
0.306928
0.855285
4.369154
0.600691
5.267285
1.131142
4.627008
0.942554
5.131180
1.979568
4.303976
5.120376
1.621166
3.705664
4.829312
3.149235
5.376959
5.228006
2.578676
4.446779
0.315620
3.981599
4.997982
3.920711
3.822954
4.674473
5.260874
0.279298
5.091453
0.861633
4.900127
0.690050
4.659987
0.448150
4.704114
0.479555
3.779011
3.965539
2.047812
2.583149
3.119487
3.568977
2.162279
2.301234
4.214946
0.385142
0.250411
0.567011
0.196618
4.719599
4.670002
1.249732
1.321351
4.970023
5.095234
3.420945
3.356814
3.109045
3.126082
1.972232
2.128758
5.113417
5.341593
3.910480
4.105562
2.760910
2.662243
2.013754
5.148284
5.294143
4.246830
4.341955
3.312008
3.331170
3.746365
1.021527
1.078996
2.334721
2.326518
0.360269
0.571625
0.553013
3.366479
3.666907
3.787573
3.464250
3.478060
3.817587
3.755659
2.779229
2.883376
4.261816
4.191276
2.663500
2.661690
3.974956
4.000132
4.562594
4.338377
1.750660
1.438620
3.178780
3.034961
3.740719
3.626853
5.264522
5.193510
4.646618
4.667004
5.270712
5.374990
1.192277
1.166406
2.228231
2.382980
4.681140
4.887785
4.309279
4.612170
2.997571
3.200120
4.376999
4.213722
2.597725
4.855035
4.810826
3.049983
3.032301
3.455427
3.540059
5.465556
5.326347
4.883534
5.131149
4.903015
4.762141
1.505193
1.452313
2.164851
2.033278
0.273247
0.301625
1.139202
1.954935
1.990272
0.933655
1.213400
0.799904
0.803285
0.770617
0.393718
0.472318
2.362707
2.737529
2.786498
1.401345
0.816001
2.943519
1.841774
1.862341
0.936734
1.072084
2.624737
2.788706
4.863646
1.684090
1.611534
5.302100
5.190343
0.656812
0.634894
2.196155
2.134094
0.286944
0.314854
0.683901
0.561627
0.792331
0.995307
4.691424
4.877109
2.304036
2.139205
1.590621
1.563916
1.515800
1.514149
5.266726
5.090519
5.324304
5.128414
1.943798
0.793765
0.702663
1.461588
1.568038
0.901029
0.374973
0.352376
1.224555
1.202185
3.880474
4.010032
0.407602
3.613079
3.655944
2.097729
2.721371
3.109342
2.098027
2.232677
3.918771
0.126155
0.433898
0.433529
0.320684
4.444147
4.479105
1.351012
1.311326
4.789080
4.807168
3.219642
3.038101
3.086502
3.170193
2.089897
1.966804
5.013193
5.076796
3.963358
4.139007
2.543475
2.674085
1.645487
5.108319
5.115557
4.265998
4.476334
2.975132
2.996496
0.811058
0.915411
2.054889
2.229714
0.366691
0.429684
0.381587
3.435397
3.710041
3.854717
3.403582
3.357313
3.646907
3.721436
2.621079
2.636817
3.979167
3.929352
2.648191
2.576196
3.927605
3.848951
4.238835
4.206768
1.667901
1.395893
2.906790
2.989012
3.312005
3.501761
4.921215
4.978183
4.442913
4.333813
5.194362
5.036839
1.116933
0.994509
2.413051
2.476280
4.538344
4.594128
4.359672
4.461731
3.062942
2.976276
4.125604
4.101603
2.506212
2.674323
4.543560
4.649757
3.165303
3.137039
3.452693
3.580637
5.208060
5.178513
4.991394
5.056573
4.711241
4.694063
1.310440
1.362157
1.941277
1.783721
0.173267
0.205312
1.012683
1.862322
1.931116
0.880224
1.025332
0.666893
0.586819
0.617658
0.173863
0.479316
2.426030
2.660457
1.131271
0.682295
1.616363
1.805551
0.756988
1.021827
2.166596
2.344026
2.575117
4.567181
1.549641
1.441689
5.008306
4.998705
0.691922
0.529295
2.149338
2.150950
0.212776
0.445713
0.723141
0.595797
0.768045
0.901017
4.803323
4.942228
2.211572
2.275667
1.704307
1.596168
1.445701
1.273067
5.348992
5.241969
5.313300
5.247585
1.911028
0.655114
0.817705
1.730606
1.629354
0.924285
0.264472
0.397736
1.410773
1.129492
3.474976
3.426118
3.794378
3.457047
2.664552
3.458930
1.752056
3.871299
4.052474
4.258038
4.643068
5.121205
3.664651
0.684193
0.771406
3.982046
1.147677
4.506088
1.026349
2.080219
1.174265
4.483316
2.305942
3.107189
2.372516
0.291932
2.221861
4.740056
2.068696
3.009489
4.719840
3.579428
2.752734
4.924580
3.101878
4.982055
3.582119
1.605662
4.046779
3.026821
5.138338
3.438583
4.751464
4.175567
2.932505
1.100944
2.862563
0.311383
1.889713
3.448757
2.197242
1.228015
4.500576
2.634312
4.031895
1.879022
1.549895
0.321003
3.139751
0.463202
2.670871
1.356758
4.185179
1.325693
0.689437
2.127327
1.983950
3.192110
4.076775
2.947871
1.350346
3.679872
0.993752
2.974311
0.994934
1.799179
0.418675
1.359454
2.570771
1.735446
0.400665
3.854035
5.145973
1.598228
3.521100
2.465196
4.543546
3.117479
0.785637
1.849049
2.408948
3.878072
3.652987
4.387686
1.779482
2.511796
5.231253
2.311551
5.072088
2.726632
2.363507
3.002367
4.518437
3.367832
2.864922
4.002744
2.296597
1.240025
0.828285
2.374242
2.878374
2.164183
1.952525
4.247620
0.739640
2.267160
3.730298
1.661902
2.638822
3.213340
3.285237
1.391478
2.432129
0.396002
3.359750
2.532634
3.336112
0.280181
3.467769
0.772885
4.348978
1.027634
1.633843
0.494645
0.660063
2.839033
0.297931
0.915552
0.403223
4.324204
1.095756
4.722209
4.942127
0.897569
4.074922
1.661272
1.539374
5.005513
5.192220
3.736343
2.994931
5.203092
5.087217
2.225826
0.313600
4.084553
3.921940
5.305749
3.729265
4.961659
3.179319
5.024870
0.229768
5.155675
0.839394
1.537237
4.631610
0.536737
0.383154
4.663324
5.163503
4.513586
1.833253
2.278007
2.233361
2.189116
2.083813
2.684495
2.737494
2.769911
2.777713
3.496199
3.676868
1.760917
1.630777
1.598689
3.578171
3.628636
1.739002
3.598929
3.834365
3.509919
3.651394
1.523939
3.691866
4.001338
3.788033
4.116305
4.106425
4.303847
1.902462
2.091053
4.150996
4.203605
4.214237
4.271193
3.971175
3.997459
1.662486
1.966853
2.229405
2.123026
2.230237
2.206093
1.714001
2.265698
4.142893
4.398732
4.320411
4.578604
1.779930
4.490410
1.979535
4.444628
4.500431
4.584219
4.474004
4.639328
1.852757
1.868905
3.124798
3.132857
2.821023
2.964593
1.847269
4.631368
4.596254
2.800939
3.128846
3.029383
1.766489
2.937333
4.457949
4.607447
4.555981
4.471939
3.152956
3.086097
2.972965
2.801875
4.727186
1.950217
1.965544
1.673163
1.646308
3.164390
2.883700
3.158717
3.261567
1.737822
1.888415
4.708209
2.016604
2.408258
4.610542
4.622644
4.584187
4.544878
3.621171
1.889868
4.807437
2.181495
1.829699
4.630664
1.688657
4.555550
1.722828
1.658729
3.729149
4.512716
2.331250
5.052603
4.872952
3.506843
3.535208
2.814728
5.063485
4.604019
4.740060
1.975000
5.035791
1.830192
2.657030
1.650484
1.754887
4.742624
4.922692
4.936841
1.854016
4.844234
1.914479
3.566293
2.770984
2.707928
4.943170
4.817329
3.595207
3.935326
2.451481
1.686803
3.753071
3.561803
3.754459
4.882927
4.851685
4.925601
4.853537
2.970068
2.247406
3.595209
1.620186
2.237036
2.804516
3.857840
2.278329
2.928096
1.864212
2.152444
1.823324
1.745066
3.646586
4.862957
1.715481
3.906064
3.805289
2.249261
3.615545
4.813159
2.253805
3.973700
3.753183
2.537655
2.553218
3.173511
2.321895
1.679318
3.581862
1.877177
1.878896
1.787671
3.318753
3.644891
3.314786
4.926098
4.333430
3.826266
3.710501
4.967463
4.915081
1.902907
2.358049
4.840228
4.038795
3.331918
5.113868
1.839527
5.171222
1.787239
5.075544
5.126592
3.039570
3.101057
4.921622
5.186334
4.989768
1.918993
1.759720
1.845448
2.222202
4.062010
4.795965
2.371687
4.944164
5.234492
4.132274
4.324487
4.234685
4.881137
4.841229
5.009087
4.840111
1.760325
2.808837
3.089810
4.296022
4.984162
2.942028
4.369079
4.447312
3.161128
1.812622
1.902854
4.257350
4.193409
4.957250
4.201592
5.057687
2.707355
4.261464
5.059094
5.039631
2.613709
5.254255
5.125513
5.152687
4.925907
2.597137
4.979546
2.534156
3.601405
5.110363
4.929663
4.984644
3.189883
1.755783
2.186412
1.869305
4.523159
2.314231
4.571475
1.757250
4.263011
1.962721
4.213048
3.353281
1.872731
3.151512
3.131832
1.733845
1.935406
2.664330
1.602572
1.729542
4.049041
2.696488
4.162698
4.979499
4.983758
4.966508
4.953949
3.365470
4.339340
4.337953
4.370048
4.603627
2.460013
3.225385
2.591243
1.975084
4.769313
1.853183
1.848610
3.859690
1.884287
3.633866
2.480117
5.053787
1.773724
2.979417
3.097329
4.748837
5.198239
3.286553
1.798793
1.856132
1.740964
5.144759
4.820805
3.591005
2.751867
1.662580
4.413597
1.740082
2.599342
2.308743
1.701109
1.810498
1.650434
2.282076
1.824045
4.189105
4.656904
3.148135
4.219719
3.942188
2.609153
4.249017
4.053159
4.103750
2.130767
3.200699
3.360784
4.066277
3.313653
2.297991
3.193231
4.244490
4.125588
1.723025
1.710613
3.301441
4.516934
5.227113
2.669852
3.297394
5.136058
2.882912
2.570589
1.682370
5.053573
2.254377
4.649618
1.801681
4.184836
3.280926
3.815174
3.193582
2.081514
3.173027
1.732679
4.021953
4.140401
4.526273
4.482924
1.931904
1.728153
5.157888
2.724632
1.905284
1.700506
2.783288
3.606220
3.644063
1.702813
4.286048
3.879489
4.398759
5.253102
2.618310
5.013885
4.605055
3.735513
3.582145
2.644309
4.552540
4.567210
5.122102
2.779080
3.751672
4.171163
1.740780
3.992987
4.048617
1.977766
3.256977
2.624333
1.796736
1.749806
5.070250
1.730574
1.738331
5.070069
1.992959
1.733112
0.876722
4.182987
4.313390
2.909590
3.086485
2.501475
2.616275
1.385019
1.415668
1.941217
2.958760
0.859196
0.833991
3.658283
2.405051
2.954929
2.353257
1.402249
2.001743
1.894780
3.078975
2.358313
1.077627
1.011692
1.987894
3.551493
4.107315
3.733502
2.758315
3.738113
4.445822
4.508082
3.709340
4.496283
4.353892
4.596838
3.930843
3.811563
4.510770
3.841835
2.558986
3.960373
4.010830
3.666936
3.800704
3.206869
4.274363
4.451461
3.557199
4.398250
4.583945
4.404356
3.633535
2.554250
3.885765
4.404612
3.755516
2.406725
1.507005
2.314210
2.186594
1.618863
1.509029
0.846563
1.694985
1.668745
2.286419
1.369811
1.560953
2.700155
0.883136
2.589175
1.850768
1.928769
2.615723
1.649789
2.329814
2.170538
2.430294
2.647804
0.941310
3.358692
4.149560
3.858492
3.283306
3.264648
3.779265
3.242579
4.080435
2.695687
3.839199
4.233704
1.058339
0.977459
1.407244
1.033021
3.125242
2.518705
1.475120
0.954019
1.842486
2.967448
2.200201
2.861292
2.884881
0.401262
0.433595
1.343268
0.427032
1.220796
2.150786
2.090056
1.362873
0.683677
0.552534
2.070796
1.322220
1.461278
0.462834
3.756732
3.499383
2.284348
2.238483
3.130882
3.280050
3.748677
3.656564
2.930158
3.423679
3.374439
3.555463
2.889498
4.168713
3.584762
3.522541
4.058037
2.114246
3.874397
4.070095
4.214493
4.363764
2.226568
3.876078
3.577822
3.400493
2.746525
3.794597
1.484424
1.696702
0.879793
2.921268
1.474971
1.775843
1.566730
0.933297
1.949256
2.640026
2.441850
1.448413
1.382922
1.768102
1.475209
2.748879
2.362546
0.469813
1.527743
2.256750
1.160261
0.663518
1.734349
2.076879
2.646448
2.450193
1.797543
1.380661
2.185128
2.998437
0.803644
3.327434
2.003127
3.084356
2.084134
2.644498
1.203244
3.982250
1.371468
0.763843
1.632315
1.274556
2.037457
2.744645
0.643759
3.591148
2.933608
3.465064
3.996620
3.719428
4.282355
4.523574
3.781805
4.336691
4.126744
4.291306
4.161541
0.830818
4.090070
4.122514
2.484394
2.561904
2.210175
1.513756
1.609112
1.386082
2.258565
1.348777
0.860686
0.841685
0.862016
2.283022
0.770347
1.422755
2.645406
1.846030
1.540658
1.925810
1.841505
2.553319
1.992155
2.357525
2.964602
2.791594
1.580657
0.906395
1.618973
1.751516
1.374983
2.210611
1.525066
3.475715
2.710942
3.210995
2.857304
3.498778
3.470723
3.427744
3.012083
1.421178
2.046390
1.873044
3.014158
1.600571
1.052068
3.586122
2.193394
2.105010
2.144519
2.573998
1.178612
1.147117
2.885164
1.115570
1.448810
0.407327
0.676489
0.373086
1.723183
2.464683
1.502140
3.223779
3.014493
1.590316
4.069444
4.334871
4.240658
4.292511
3.684561
4.229380
3.625595
3.751846
4.250427
3.772164
3.948358
4.091495
3.689605
3.705325
4.069374
4.323354
4.174993
0.461130
0.816014
1.350011
3.730231
1.930902
1.532089
1.679231
1.353146
1.034833
2.963098
3.420955
2.852151
3.805893
3.477955
3.075679
3.895948
3.535330
2.958194
3.781139
3.738604
0.844480
0.849007
2.135600
3.309531
1.435122
2.601154
1.379666
1.044628
2.443050
0.860527
0.542070
0.343440
0.978664
0.583968
0.906482
0.970162
1.067984
1.193294
2.778116
1.807741
2.001599
3.204242
4.119509
2.386068
1.322722
0.431219
1.573658
0.763846
2.134873
1.229282
4.005491
2.465751
3.673926
1.757957
1.660820
2.881327
2.711575
2.896429
2.211695
3.125442
3.218209
1.568887
1.471345
3.423590
3.014664
2.549701
1.958944
2.220891
3.627504
3.505025
1.793726
1.721662
1.993719
1.745068
1.780392
3.765066
2.400398
2.943118
3.480630
1.730922
1.922566
1.591918
2.143803
2.063547
1.888338
2.397959
3.024718
2.370841
3.144878
2.745542
2.172088
1.761218
2.016151
2.433754
2.770298
1.893356
2.184348
1.783246
1.993155
3.221264
2.347380
2.685286
3.669677
2.949715
1.900821
1.790619
1.917395
1.850473
1.524410
2.686903
2.024901
2.512478
2.872299
3.676330
2.753202
2.235741
1.800330
1.824009
1.700923
1.735982
1.938578
1.661204
1.848272
1.664338
1.703854
1.786993
1.634918
2.040311
2.866111
2.540016
1.971461
2.304850
3.259648
1.811448
1.798890
2.009499
2.132129
3.777532
3.274180
2.842401
2.825934
2.091699
2.015513
1.782216
1.738336
2.146211
2.142609
3.089114
3.016557
2.542821
3.235931
2.732509
2.414958
2.304120
2.847994
4.227477
2.400932
1.899005
2.973257
3.420913
2.640123
2.110913
1.706041
1.878634
1.448240
3.636045
2.914494
3.556987
2.386366
1.912158
2.386856
1.795370
2.194031
2.050337
2.937987
1.830454
1.504495
3.560352
1.650476
2.777303
2.161560
2.754599
2.852294
1.995318
2.382358
2.166566
1.661152
1.889330
2.034245
1.899132
1.731545
3.532021
2.353209
2.000576
2.793660
2.660099
3.648790
2.369479
1.829155
1.810506
2.165870
1.917020
1.522411
1.785293
1.907265
2.275396
2.760449
1.764287
2.306340
1.986567
2.654862
3.065814
3.585051
3.753440
3.328953
3.764591
3.011704
2.405716
3.172797
2.205693
3.666957
3.068154
3.483648
2.780739
2.517721
2.611729
3.675476
2.671063
2.843575
2.743427
3.381809
2.523041
2.998619
3.027760
2.191216
1.715108
1.680829
1.757385
2.770536
1.707948
2.593396
2.016937
1.535641
1.798999
2.114721
2.592408
1.591373
1.716544
1.675345
1.841547
1.760434
2.095856
2.152344
2.421800
1.644774
2.805645
3.180230
2.479736
2.619295
3.018664
3.620605
2.278927
2.065831
1.918227
2.317880
1.537052
1.894711
1.694901
2.328544
2.422834
2.424132
1.902324
1.948684
3.189171
3.983288
3.377288
2.863253
2.417531
2.914460
1.920334
3.468406
2.926302
3.665055
3.731796
1.835439
2.001033
3.059281
3.372500
3.210952
3.840159
3.935651
2.972906
3.052907
2.411703
2.233366
2.558634
1.935345
1.795652
2.223913
2.594369
2.587279
2.311096
3.596531
4.067170
3.604354
2.604097
3.070580
2.545314
2.940794
1.966012
2.095338
2.059906
2.965953
1.745452
2.313954
3.790641
1.832366
2.129473
2.712849
2.610988
3.427827
1.806297
1.440498
2.757936
1.668814
1.562797
3.723835
3.817001
2.295855
1.763490
2.617336
2.545527
2.046071
2.324263
2.217691
1.510238
3.450548
2.474173
1.725543
2.905303
2.939960
3.570565
1.701789
1.396677
2.191614
2.362497
1.872008
1.930178
3.077097
2.525257
3.993060
3.674473
2.277023
2.336339
1.890008
2.567742
2.950045
3.432858
2.463532
2.391748
1.733351
1.746823
2.541321
1.478396
2.733443
2.898801
3.125303
2.347714
2.917704
2.391172
1.809579
3.318289
3.135568
1.651434
1.575550
1.456184
1.749637
2.310648
2.510328
2.730094
1.674988
2.807205
2.327008
1.857740
1.459783
2.694158
1.939310
1.731361
1.697520
2.592362
3.117734
1.667614
2.181509
1.685245
3.200137
2.691446
3.061953
3.233010
2.504345
3.823718
2.899979
2.405133
2.930371
1.737107
1.533342
1.873590
2.124961
2.525636
1.953637
3.064654
1.684088
1.545167
1.585351
2.186876
1.697375
3.510753
3.039149
2.045601
1.908532
3.670966
3.142810
3.091429
1.428150
3.501387
3.090063
1.655245
1.885891
3.572909
2.990709
1.514388
1.685539
3.592372
2.195327
1.693445
1.860070
1.803003
2.031680
2.974847
3.162708
3.084301
3.177723
2.792327
2.428736
2.901592
3.295092
1.764989
1.831878
2.665114
2.307994
2.744342
1.982909
1.568476
2.112251
1.441477
1.528846
1.638946
1.443839
1.722052
1.857651
3.244700
3.307170
2.031351
2.221002
1.723401
4.362933
4.264805
4.274472
3.916506
4.637586
4.227368
3.996108
3.989441
3.892070
4.235258
2.624150
1.944442
2.355532
3.060681
1.577522
3.676351
2.570255
1.888012
2.372974
2.843152
1.480344
3.319991
3.850658
4.018323
4.500730
4.284056
4.088774
3.669632
4.263851
3.673079
3.545572
4.072942
3.189643
3.948520
4.056773
3.660211
3.798882
3.111160
2.960927
4.240061
4.469442
3.991543
3.466140
3.617445
3.172647
3.974969
2.378967
2.542622
2.083101
1.709745
1.161621
1.563259
2.785729
3.237076
2.213843
2.696770
3.978845
3.788129
3.573497
3.757126
1.908432
3.492715
3.311835
1.916971
1.764416
1.925028
2.613001
1.192862
1.027012
1.358343
1.839998
1.600892
2.519396
1.671713
2.053113
1.397499
1.766659
1.399895
1.237617
1.048253
1.369532
2.429286
1.139388
1.455084
1.062303
1.862364
1.057425
1.978209
2.059184
0.917325
1.404129
1.559840
1.150902
