# vtk DataFile Version 2.0
Unstructured Grid Example
ASCII
DATASET UNSTRUCTURED_GRID
POINTS 2044 float
0.900125 -0.001025 -0.158008 
-0.000420 0.903989 -0.152075 
-0.902514 -0.001452 -0.159536 
-0.002063 -0.903796 -0.161800 
0.001231 -0.001434 1.137669 
0.897488 -0.089706 -0.158217 
0.886125 -0.178843 -0.158081 
0.866176 -0.262358 -0.151833 
0.836036 -0.349737 -0.156751 
0.796280 -0.431984 -0.162566 
0.750473 -0.508467 -0.163372 
0.697252 -0.578933 -0.156473 
0.640076 -0.644126 -0.156246 
0.574331 -0.702214 -0.159326 
0.500892 -0.756188 -0.161310 
0.422634 -0.797667 -0.162723 
0.340643 -0.831179 -0.163249 
0.260523 -0.863525 -0.157981 
0.173922 -0.885758 -0.160779 
0.086623 -0.897355 -0.161775 
-0.094886 -0.895038 -0.165076 
-0.181042 -0.884882 -0.163395 
-0.265431 -0.862154 -0.161346 
-0.347790 -0.831218 -0.163277 
-0.431458 -0.798269 -0.156230 
-0.506784 -0.752678 -0.157617 
-0.576696 -0.697411 -0.158435 
-0.642916 -0.637246 -0.159706 
-0.700686 -0.572137 -0.158793 
-0.753026 -0.503808 -0.160191 
-0.797896 -0.426318 -0.160906 
-0.835559 -0.346297 -0.157825 
-0.865418 -0.264649 -0.159370 
-0.883731 -0.175038 -0.162237 
-0.896854 -0.089604 -0.161353 
-0.894981 0.085558 -0.161275 
-0.884998 0.174691 -0.168148 
-0.864418 0.262524 -0.167799 
-0.829815 0.345055 -0.171425 
-0.794200 0.427361 -0.167637 
-0.746406 0.500380 -0.168082 
-0.692071 0.569373 -0.170200 
-0.636150 0.637395 -0.165285 
-0.571648 0.697443 -0.166014 
-0.501214 0.752236 -0.166735 
-0.424735 0.797157 -0.163643 
-0.345462 0.832346 -0.162031 
-0.262615 0.865511 -0.159887 
-0.176747 0.884656 -0.158277 
-0.088791 0.902181 -0.154529 
0.088104 0.901865 -0.152994 
0.173158 0.888044 -0.151644 
0.259881 0.864759 -0.151403 
0.342266 0.831617 -0.159678 
0.424515 0.796337 -0.157530 
0.499922 0.753285 -0.159460 
0.569365 0.702894 -0.163256 
0.634909 0.641651 -0.165862 
0.692996 0.576463 -0.165621 
0.748777 0.504507 -0.164781 
0.792237 0.426556 -0.168695 
0.832811 0.345236 -0.165347 
0.864204 0.261399 -0.159605 
0.883363 0.175350 -0.155166 
0.895318 0.086986 -0.156837 
0.907296 -0.000651 -0.053419 
0.908322 0.002382 0.058005 
0.898330 0.002374 0.169187 
0.874216 0.000846 0.275056 
0.846690 0.002144 0.386441 
0.810338 0.002015 0.492433 
0.765741 0.001929 0.598015 
0.710710 0.003740 0.693563 
0.650465 0.003398 0.794064 
0.571476 0.002378 0.873444 
0.490497 0.002874 0.949222 
0.403096 0.002070 1.016459 
0.308043 0.001324 1.072280 
0.208581 0.001489 1.108046 
0.104850 -0.000295 1.130815 
0.002091 0.102780 1.130401 
0.002148 0.207245 1.104351 
0.001778 0.308091 1.065719 
-0.000706 0.401891 1.009204 
-0.001390 0.490093 0.944973 
-0.002970 0.572110 0.872471 
-0.004480 0.645699 0.788824 
-0.004996 0.710479 0.694428 
-0.005425 0.767748 0.598158 
-0.005019 0.816109 0.496800 
-0.004596 0.855657 0.393712 
-0.001468 0.877449 0.281009 
-0.001962 0.901654 0.173340 
-0.000936 0.907955 0.063071 
-0.002077 0.910083 -0.045125 
-0.103175 -0.001714 1.131713 
-0.205480 0.000641 1.106122 
-0.305114 0.002574 1.068202 
-0.400345 0.001249 1.014426 
-0.489653 0.001123 0.948879 
-0.570399 0.001250 0.874479 
-0.642558 0.002671 0.789383 
-0.707751 0.002644 0.696982 
-0.763400 0.002966 0.600638 
-0.808539 0.001723 0.494743 
-0.849072 0.001639 0.387833 
-0.881540 0.001613 0.280850 
-0.898291 0.000374 0.169439 
-0.907945 -0.000928 0.059364 
-0.909020 -0.003316 -0.052057 
0.001283 -0.106502 1.127237 
0.001154 -0.208863 1.100559 
0.002876 -0.308976 1.061336 
0.002869 -0.404847 1.010713 
0.000538 -0.494921 0.947941 
0.001541 -0.575726 0.870205 
0.000373 -0.648757 0.784521 
-0.000766 -0.713746 0.689587 
-0.001096 -0.769053 0.592286 
-0.001368 -0.817393 0.488983 
-0.004142 -0.854001 0.380850 
-0.004170 -0.885414 0.276454 
-0.004245 -0.899878 0.164507 
-0.001705 -0.909412 0.054994 
-0.003328 -0.908004 -0.055552 
0.735415 0.432540 0.365800 
0.349466 0.388232 0.920261 
0.321373 0.817455 0.270636 
0.835952 0.308293 0.194685 
0.867597 0.253540 0.108610 
0.883048 0.195380 0.080585 
0.889365 0.181872 -0.012284 
0.487655 0.749174 0.205893 
0.529670 0.327490 0.816980 
0.272212 0.679263 0.655703 
0.676860 0.591883 0.160055 
0.717536 0.285266 0.580770 
0.693991 0.586028 0.043755 
0.753026 0.185597 0.573614 
0.212403 0.547821 0.852849 
0.204993 0.800981 0.471068 
0.776046 0.472583 0.068333 
0.804948 0.204679 0.441077 
0.142049 0.435555 0.972026 
0.127868 0.859791 0.329353 
0.392678 0.731066 0.448267 
0.407630 0.525594 0.765458 
0.389961 0.823773 0.011977 
0.442389 0.160729 0.961858 
0.816187 0.396034 0.004035 
0.851496 0.172440 0.318886 
0.096193 0.363202 1.029103 
0.084669 0.886726 0.243286 
0.255160 0.872700 -0.029998 
0.298964 0.120228 1.060639 
0.852546 0.314852 -0.068698 
0.884393 0.090962 0.240636 
0.553336 0.571871 0.531777 
0.091065 0.297219 1.067113 
0.079122 0.896110 0.166493 
0.203010 0.886654 -0.061631 
0.240843 0.091978 1.089251 
0.894079 0.105533 0.104298 
0.874801 0.243021 -0.081414 
0.901648 0.089977 -0.005428 
0.644752 0.422830 0.584365 
0.622797 0.599582 0.333857 
0.503944 0.690641 0.371490 
0.526015 0.457915 0.712619 
0.717672 0.520424 0.221691 
0.741843 0.343738 0.487515 
0.681934 0.489250 0.423041 
0.381485 0.644355 0.633079 
0.344557 0.194339 1.013245 
0.302964 0.856246 0.048726 
0.366008 0.821914 0.149163 
0.404305 0.283047 0.942949 
0.330077 0.715122 0.557951 
0.333454 0.607207 0.719172 
0.449060 0.739108 0.337329 
0.475211 0.436569 0.793111 
0.279952 0.479280 0.885595 
0.262746 0.809552 0.388082 
0.442849 0.784592 0.116499 
0.491120 0.254474 0.892704 
0.306915 0.544278 0.808711 
0.300389 0.770274 0.472273 
0.238676 0.421117 0.952414 
0.220813 0.843454 0.313516 
0.794817 0.414845 0.187897 
0.822342 0.266120 0.336591 
0.441011 0.357688 0.876891 
0.406026 0.788778 0.240857 
0.357716 0.780464 0.356930 
0.381768 0.455679 0.850555 
0.105733 0.586476 0.846659 
0.098276 0.797892 0.518020 
0.205094 0.750190 0.575543 
0.208213 0.629978 0.767382 
0.081226 0.506674 0.927123 
0.071530 0.844818 0.415740 
0.649831 0.304273 0.686977 
0.608339 0.661160 0.182619 
0.453351 0.786890 -0.077020 
0.514086 0.078122 0.916102 
0.172054 0.869171 0.251117 
0.189184 0.366970 1.003405 
0.200156 0.885617 0.057113 
0.235534 0.200984 1.067425 
0.428228 0.669077 0.544582 
0.422592 0.577689 0.690620 
0.276971 0.307916 1.000530 
0.248989 0.861326 0.176011 
0.870650 0.196385 0.194491 
0.845675 0.325264 0.055418 
0.179307 0.500104 0.911734 
0.164668 0.829630 0.408462 
0.382921 0.820057 -0.096764 
0.445063 0.061381 0.981173 
0.321641 0.848373 -0.064825 
0.373287 0.089435 1.020882 
0.063918 0.442083 0.981207 
0.054898 0.864213 0.333506 
0.100616 0.902002 0.069946 
0.120062 0.210123 1.094035 
0.166344 0.291313 1.051057 
0.146961 0.887870 0.163784 
0.602621 0.493336 0.569573 
0.592038 0.596231 0.424645 
0.533490 0.642300 0.446620 
0.545717 0.511284 0.633530 
0.713437 0.416706 0.459984 
0.704046 0.501108 0.322032 
0.625196 0.529982 0.476487 
0.518432 0.740309 0.099201 
0.571312 0.235306 0.822307 
0.759889 0.477348 0.174303 
0.783670 0.307772 0.419384 
0.650403 0.552048 0.377068 
0.660741 0.456464 0.511542 
0.754771 0.373887 0.415052 
0.692053 0.380366 0.542334 
0.666168 0.568073 0.276122 
0.469592 0.689713 0.451785 
0.481711 0.519472 0.701929 
0.788844 0.362746 0.306993 
0.751132 0.455453 0.263422 
0.847134 0.233983 0.267552 
0.873979 0.247362 0.012879 
0.541758 0.693482 0.267670 
0.576949 0.378078 0.732584 
0.647424 0.367316 0.639136 
0.614516 0.632163 0.262597 
0.497982 0.632295 0.522374 
0.476342 0.593752 0.615190 
0.169561 0.698307 0.679620 
0.569031 0.645328 0.354556 
0.591771 0.439466 0.646028 
0.091446 0.673806 0.743575 
0.091894 0.736975 0.636623 
0.635475 0.651654 0.086380 
0.688869 0.225437 0.674941 
0.898168 0.074868 -0.090399 
0.546317 0.159305 0.868237 
0.490675 0.768201 0.013559 
0.740268 0.088754 0.632296 
0.674842 0.611988 -0.069020 
0.767468 0.266484 0.496186 
0.732200 0.533149 0.121417 
0.734636 0.540688 -0.045353 
0.789501 0.095022 0.535190 
0.148328 0.097167 1.113539 
0.124807 0.902995 -0.052747 
0.858765 0.076557 0.329112 
0.817001 0.394343 -0.088700 
0.784739 0.460919 -0.067197 
0.829347 0.094451 0.418820 
0.814571 0.389026 0.101953 
0.617550 0.267043 0.752687 
0.568175 0.702932 0.140808 
0.054294 0.907831 -0.087157 
0.066212 0.064209 1.131432 
0.067739 0.136744 1.121274 
0.056408 0.909610 -0.011037 
0.607586 0.677219 -0.083511 
0.678845 0.078568 0.735157 
0.534753 0.736570 -0.076993 
0.601483 0.079550 0.831333 
0.650260 0.641915 -0.010102 
0.712456 0.143799 0.667202 
0.574971 0.706823 0.023891 
0.636540 0.169305 0.772103 
0.736435 0.535866 0.046664 
-0.457031 0.466075 0.778379 
-0.354577 0.813412 0.219694 
-0.815478 0.348738 0.212895 
-0.344107 0.334876 0.955380 
-0.262763 0.292452 1.014080 
-0.224359 0.217512 1.061300 
-0.168124 0.140536 1.100622 
-0.313905 0.773127 0.447429 
-0.772536 0.311637 0.442841 
-0.636031 0.633687 0.146428 
-0.294043 0.634114 0.713715 
-0.632034 0.289394 0.715772 
-0.191869 0.637444 0.770503 
-0.645213 0.193239 0.744943 
-0.496131 0.756464 0.064003 
-0.757919 0.493307 0.066065 
-0.218868 0.537799 0.866252 
-0.508627 0.225804 0.883532 
-0.383062 0.820738 -0.012694 
-0.824275 0.384216 -0.019632 
-0.721808 0.490424 0.293204 
-0.493935 0.716371 0.296539 
-0.152779 0.854271 0.323381 
-0.854065 0.147420 0.323050 
-0.171428 0.459888 0.947706 
-0.438078 0.169406 0.963372 
-0.314148 0.851809 -0.061445 
-0.853018 0.313879 -0.071023 
-0.106850 0.897203 0.159785 
-0.893025 0.105785 0.154339 
-0.367217 0.098302 1.025591 
-0.097182 0.371884 1.020755 
-0.572276 0.568050 0.497966 
-0.255401 0.871684 -0.069114 
-0.875818 0.254990 -0.076939 
-0.081392 0.906020 0.093435 
-0.904290 0.078942 0.090724 
-0.244925 0.116348 1.079724 
-0.110834 0.237766 1.082688 
-0.165586 0.063734 1.114733 
-0.427340 0.622725 0.616468 
-0.623732 0.423617 0.614584 
-0.448578 0.696654 0.447463 
-0.702069 0.441836 0.447445 
-0.555281 0.350206 0.770241 
-0.357996 0.561583 0.771219 
-0.506934 0.504912 0.686424 
-0.620189 0.623337 0.277302 
-0.179506 0.878272 0.211423 
-0.877344 0.175598 0.207555 
[...]
POINT_DATA 2044
SCALARS u float 1
LOOKUP_TABLE default
5.417625
5.212379
5.418770
5.455952
3.990318
5.394598
5.360855
5.190269
5.294541
5.446469
5.458319
5.288657
5.254698
5.344401
5.397053
5.495566
5.575663
5.388673
5.447436
5.489184
5.596588
5.506050
5.471015
5.534235
5.264939
5.299171
5.355510
5.383744
5.369296
5.382735
5.420782
5.346655
5.377914
5.509853
5.481734
5.514664
5.639626
5.611431
5.771073
5.630043
5.689177
5.778065
5.590920
5.590482
5.577324
5.509778
5.500346
5.397917
5.393247
5.233983
5.201810
5.190804
5.212338
5.471647
5.370576
5.393878
5.483491
5.575383
5.589017
5.544485
5.687609
5.577506
5.414969
5.340697
5.398233
5.074603
4.494493
3.899739
3.435433
2.666250
1.930500
1.076631
0.420380
0.773941
1.302744
2.029277
2.748255
3.382392
3.709221
3.935843
3.921774
3.599033
3.195007
2.534846
1.906444
1.284246
0.578167
0.406885
1.072791
1.766498
2.380408
3.239741
3.749402
4.369907
4.826759
3.960036
3.645044
3.253969
2.673921
2.011690
1.319018
0.535857
0.303837
1.020820
1.884680
2.602703
3.196616
3.893071
4.464393
5.016296
3.835230
3.494352
3.074853
2.598648
2.031300
1.266319
0.533569
0.543441
1.226156
1.972882
2.748778
3.276614
4.004801
4.557124
5.118861
2.878650
1.726825
3.315083
3.887818
4.247870
4.407517
4.852283
3.666649
0.803955
0.701880
4.043931
1.393541
4.703960
1.445722
1.059195
1.901121
4.603531
2.370091
2.205065
2.805244
2.147718
0.409959
4.682728
2.087329
4.962239
3.119161
2.802681
3.244292
4.799526
3.174575
5.192314
3.471280
1.573265
3.255783
3.719421
4.949200
3.473997
4.272379
5.146391
4.832671
1.250654
2.946123
2.670243
0.174197
3.851264
1.933627
2.402740
0.736024
2.579794
4.509775
4.010606
1.914570
1.324763
0.212990
2.866955
0.665454
1.357524
2.488828
4.232698
1.494589
0.660748
1.883758
2.041352
2.964786
3.904468
2.929210
1.340459
3.426737
2.752329
1.119348
1.049941
1.648880
1.250492
0.447747
1.766879
2.235626
0.475418
3.821125
5.079757
1.594261
3.271114
2.518550
4.373890
3.248920
1.374564
0.307179
2.444199
3.844559
3.779892
4.617147
1.644863
2.361890
5.221154
2.328997
5.048991
2.667080
2.299739
2.828897
4.266486
3.508920
3.032376
3.732842
1.317218
2.288801
2.074766
0.739521
2.163067
3.166803
1.991034
4.285069
0.834159
4.066413
2.427136
2.689477
1.822659
2.471169
1.630232
3.422175
1.996156
0.190229
3.261869
3.583939
3.382605
4.734530
3.382200
0.229031
0.801805
3.376250
1.515488
0.810529
0.506544
2.765314
0.750587
0.306928
0.855285
4.369154
0.600691
5.267285
1.131142
4.627008
0.942554
5.131180
1.979568
4.303976
5.120376
1.621166
3.705664
4.829312
3.149235
5.376959
5.228006
2.578676
4.446779
0.315620
3.981599
4.997982
3.920711
3.822954
4.674473
5.260874
0.279298
5.091453
0.861633
4.900127
0.690050
4.659987
0.448150
4.704114
0.479555
3.779011
3.965539
2.047812
2.583149
3.119487
3.568977
2.162279
2.301234
4.214946
0.385142
0.250411
0.567011
0.196618
4.719599
4.670002
1.249732
1.321351
4.970023
5.095234
3.420945
3.356814
3.109045
3.126082
1.972232
2.128758
5.113417
5.341593
3.910480
4.105562
2.760910
2.662243
2.013754
5.148284
5.294143
4.246830
4.341955
3.312008
3.331170
3.746365
1.021527
1.078996
2.334721
2.326518
0.360269
0.571625
0.553013
3.366479
3.666907
3.787573
3.464250
3.478060
3.817587
3.755659
2.779229
2.883376
4.261816
4.191276
2.663500
2.661690
3.974956
4.000132
4.562594
4.338377
1.750660
1.438620
3.178780
3.034961
3.740719
3.626853
5.264522
5.193510
4.646618
4.667004
5.270712
5.374990
1.192277
1.166406
2.228231
2.382980
4.681140
4.887785
4.309279
4.612170
2.997571
3.200120
4.376999
4.213722
2.597725
4.855035
4.810826
3.049983
3.032301
3.455427
3.540059
5.465556
5.326347
4.883534
5.131149
4.903015
4.762141
1.505193
1.452313
2.164851
2.033278
0.273247
0.301625
1.139202
1.954935
1.990272
0.933655
1.213400
0.799904
0.803285
0.770617
0.393718
0.472318
2.362707
2.737529
2.786498
1.401345
0.816001
2.943519
1.841774
1.862341
0.936734
1.072084
2.624737
2.788706
4.863646
1.684090
1.611534
5.302100
5.190343
0.656812
0.634894
2.196155
2.134094
0.286944
0.314854
0.683901
0.561627
0.792331
0.995307
4.691424
4.877109
2.304036
2.139205
1.590621
1.563916
1.515800
1.514149
5.266726
5.090519
5.324304
5.128414
1.943798
0.793765
0.702663
1.461588
1.568038
0.901029
0.374973
0.352376
1.224555
1.202185
3.880474
4.010032
0.407602
3.613079
3.655944
2.097729
2.721371
3.109342
2.098027
2.232677
3.918771
0.126155
0.433898
0.433529
0.320684
4.444147
4.479105
1.351012
1.311326
4.789080
4.807168
3.219642
3.038101
3.086502
3.170193
2.089897
1.966804
5.013193
5.076796
3.963358
4.139007
2.543475
2.674085
1.645487
5.108319
5.115557
4.265998
4.476334
2.975132
2.996496
0.811058
0.915411
2.054889
2.229714
0.366691
0.429684
0.381587
3.435397
3.710041
3.854717
3.403582
3.357313
3.646907
3.721436
2.621079
2.636817
3.979167
3.929352
2.648191
2.576196
3.927605
3.848951
4.238835
4.206768
1.667901
1.395893
2.906790
2.989012
3.312005
3.501761
4.921215
4.978183
4.442913
4.333813
5.194362
5.036839
1.116933
0.994509
2.413051
2.476280
4.538344
4.594128
4.359672
4.461731
3.062942
2.976276
4.125604
4.101603
2.506212
2.674323
4.543560
4.649757
3.165303
3.137039
3.452693
3.580637
5.208060
5.178513
4.991394
5.056573
4.711241
4.694063
1.310440
1.362157
1.941277
1.783721
0.173267
0.205312
1.012683
1.862322
1.931116
0.880224
1.025332
0.666893
0.586819
0.617658
0.173863
0.479316
2.426030
2.660457
1.131271
0.682295
1.616363
1.805551
0.756988
1.021827
2.166596
2.344026
2.575117
4.567181
1.549641
1.441689
5.008306
4.998705
0.691922
0.529295
2.149338
2.150950
0.212776
0.445713
0.723141
0.595797
0.768045
0.901017
4.803323
4.942228
2.211572
2.275667
1.704307
1.596168
1.445701
1.273067
5.348992
5.241969
5.313300
5.247585
1.911028
0.655114
0.817705
1.730606
1.629354
0.924285
0.264472
0.397736
1.410773
1.129492
3.474976
3.426118
3.794378
3.457047
2.664552
3.458930
1.752056
3.871299
4.052474
4.258038
4.643068
5.121205
3.664651
0.684193
0.771406
3.982046
1.147677
4.506088
1.026349
2.080219
1.174265
4.483316
2.305942
3.107189
2.372516
0.291932
2.221861
4.740056
2.068696
3.009489
4.719840
3.579428
2.752734
4.924580
3.101878
4.982055
3.582119
1.605662
4.046779
3.026821
5.138338
3.438583
4.751464
4.175567
2.932505
1.100944
2.862563
0.311383
1.889713
3.448757
2.197242
1.228015
4.500576
2.634312
4.031895
1.879022
1.549895
0.321003
3.139751
0.463202
2.670871
1.356758
4.185179
1.325693
0.689437
2.127327
1.983950
3.192110
4.076775
2.947871
1.350346
3.679872
0.993752
2.974311
0.994934
1.799179
0.418675
1.359454
2.570771
1.735446
0.400665
3.854035
5.145973
1.598228
3.521100
2.465196
4.543546
3.117479
0.785637
1.849049
2.408948
3.878072
3.652987
4.387686
1.779482
2.511796
5.231253
2.311551
5.072088
2.726632
2.363507
3.002367
4.518437
3.367832
2.864922
4.002744
2.296597
1.240025
0.828285
2.374242
2.878374
2.164183
1.952525
4.247620
0.739640
2.267160
3.730298
1.661902
2.638822
3.213340
3.285237
1.391478
2.432129
0.396002
3.359750
2.532634
3.336112
0.280181
3.467769
0.772885
4.348978
1.027634
1.633843
0.494645
0.660063
2.839033
0.297931
0.915552
0.403223
4.324204
1.095756
4.722209
4.942127
0.897569
4.074922
1.661272
1.539374
5.005513
5.192220
3.736343
2.994931
5.203092
5.087217
2.225826
0.313600
4.084553
3.921940
5.305749
3.729265
4.961659
3.179319
5.024870
0.229768
5.155675
0.839394
1.537237
4.631610
0.536737
0.383154
4.663324
5.163503
4.513586
1.833253
2.278007
2.233361
2.189116
2.083813
2.684495
2.737494
2.769911
2.777713
3.496199
3.676868
1.760917
1.630777
1.598689
3.578171
3.628636
1.739002
3.598929
3.834365
3.509919
3.651394
1.523939
3.691866
4.001338
3.788033
4.116305
4.106425
4.303847
1.902462
2.091053
4.150996
4.203605
4.214237
4.271193
3.971175
3.997459
1.662486
1.966853
2.229405
2.123026
2.230237
2.206093
1.714001
2.265698
4.142893
4.398732
4.320411
4.578604
1.779930
4.490410
1.979535
4.444628
4.500431
4.584219
4.474004
4.639328
1.852757
1.868905
3.124798
3.132857
2.821023
2.964593
1.847269
4.631368
4.596254
2.800939
3.128846
3.029383
1.766489
2.937333
4.457949
4.607447
4.555981
4.471939
3.152956
3.086097
2.972965
2.801875
4.727186
1.950217
1.965544
1.673163
1.646308
3.164390
2.883700
3.158717
3.261567
1.737822
1.888415
4.708209
2.016604
2.408258
4.610542
4.622644
4.584187
4.544878
3.621171
1.889868
4.807437
2.181495
1.829699
4.630664
1.688657
4.555550
1.722828
1.658729
3.729149
4.512716
2.331250
5.052603
4.872952
3.506843
3.535208
2.814728
5.063485
4.604019
4.740060
1.975000
5.035791
1.830192
2.657030
1.650484
1.754887
4.742624
4.922692
4.936841
1.854016
4.844234
1.914479
3.566293
2.770984
2.707928
4.943170
4.817329
3.595207
3.935326
2.451481
1.686803
3.753071
3.561803
3.754459
4.882927
4.851685
4.925601
4.853537
2.970068
2.247406
3.595209
1.620186
2.237036
2.804516
3.857840
2.278329
2.928096
1.864212
2.152444
1.823324
1.745066
3.646586
4.862957
1.715481
3.906064
3.805289
2.249261
3.615545
4.813159
2.253805
3.973700
3.753183
2.537655
2.553218
3.173511
2.321895
1.679318
3.581862
1.877177
1.878896
1.787671
3.318753
3.644891
3.314786
4.926098
4.333430
3.826266
3.710501
4.967463
4.915081
1.902907
2.358049
4.840228
4.038795
3.331918
5.113868
1.839527
5.171222
1.787239
5.075544
5.126592
3.039570
3.101057
4.921622
5.186334
4.989768
1.918993
1.759720
1.845448
2.222202
4.062010
4.795965
2.371687
4.944164
5.234492
4.132274
4.324487
4.234685
4.881137
4.841229
5.009087
4.840111
1.760325
2.808837
3.089810
4.296022
4.984162
2.942028
4.369079
4.447312
3.161128
1.812622
1.902854
4.257350
4.193409
4.957250
4.201592
5.057687
2.707355
4.261464
5.059094
5.039631
2.613709
5.254255
5.125513
5.152687
4.925907
2.597137
4.979546
2.534156
3.601405
5.110363
4.929663
4.984644
3.189883
1.755783
2.186412
1.869305
4.523159
2.314231
4.571475
1.757250
4.263011
1.962721
4.213048
3.353281
1.872731
3.151512
3.131832
1.733845
1.935406
2.664330
1.602572
1.729542
4.049041
2.696488
4.162698
4.979499
4.983758
4.966508
4.953949
3.365470
4.339340
4.337953
4.370048
4.603627
2.460013
3.225385
2.591243
1.975084
4.769313
1.853183
1.848610
3.859690
1.884287
3.633866
2.480117
5.053787
1.773724
2.979417
3.097329
4.748837
5.198239
3.286553
1.798793
1.856132
1.740964
5.144759
4.820805
3.591005
2.751867
1.662580
4.413597
1.740082
2.599342
2.308743
1.701109
1.810498
1.650434
2.282076
1.824045
4.189105
4.656904
3.148135
4.219719
3.942188
2.609153
4.249017
4.053159
4.103750
2.130767
3.200699
3.360784
4.066277
3.313653
2.297991
3.193231
4.244490
4.125588
1.723025
1.710613
3.301441
4.516934
5.227113
2.669852
3.297394
5.136058
2.882912
2.570589
1.682370
5.053573
2.254377
4.649618
1.801681
4.184836
3.280926
3.815174
3.193582
2.081514
3.173027
1.732679
4.021953
4.140401
4.526273
4.482924
1.931904
1.728153
5.157888
2.724632
1.905284
1.700506
2.783288
3.606220
3.644063
1.702813
4.286048
3.879489
4.398759
5.253102
2.618310
5.013885
4.605055
3.735513
3.582145
2.644309
4.552540
4.567210
5.122102
2.779080
3.751672
4.171163
1.740780
3.992987
4.048617
1.977766
3.256977
2.624333
1.796736
1.749806
5.070250
1.730574
1.738331
5.070069
1.992959
1.733112
0.876722
4.182987
4.313390
2.909590
3.086485
2.501475
2.616275
1.385019
1.415668
1.941217
2.958760
0.859196
0.833991
3.658283
2.405051
2.954929
2.353257
1.402249
2.001743
1.894780
3.078975
2.358313
1.077627
1.011692
1.987894
3.551493
4.107315
3.733502
2.758315
3.738113
4.445822
4.508082
3.709340
4.496283
4.353892
4.596838
3.930843
3.811563
4.510770
3.841835
2.558986
3.960373
4.010830
3.666936
3.800704
3.206869
4.274363
4.451461
3.557199
4.398250
4.583945
4.404356
3.633535
2.554250
3.885765
4.404612
3.755516
2.406725
1.507005
2.314210
2.186594
1.618863
1.509029
0.846563
1.694985
1.668745
2.286419
1.369811
1.560953
2.700155
0.883136
2.589175
1.850768
1.928769
2.615723
1.649789
2.329814
2.170538
2.430294
2.647804
0.941310
3.358692
4.149560
3.858492
3.283306
3.264648
3.779265
3.242579
4.080435
2.695687
3.839199
4.233704
1.058339
0.977459
1.407244
1.033021
3.125242
2.518705
1.475120
0.954019
1.842486
2.967448
2.200201
2.861292
2.884881
0.401262
0.433595
1.343268
0.427032
1.220796
2.150786
2.090056
1.362873
0.683677
0.552534
2.070796
1.322220
1.461278
0.462834
3.756732
3.499383
2.284348
2.238483
3.130882
3.280050
3.748677
3.656564
2.930158
3.423679
3.374439
3.555463
2.889498
4.168713
3.584762
3.522541
4.058037
2.114246
3.874397
4.070095
4.214493
4.363764
2.226568
3.876078
3.577822
3.400493
2.746525
3.794597
1.484424
1.696702
0.879793
2.921268
1.474971
1.775843
1.566730
0.933297
1.949256
2.640026
2.441850
1.448413
1.382922
1.768102
1.475209
2.748879
2.362546
0.469813
1.527743
2.256750
1.160261
0.663518
1.734349
2.076879
2.646448
2.450193
1.797543
1.380661
2.185128
2.998437
0.803644
3.327434
2.003127
3.084356
2.084134
2.644498
1.203244
3.982250
1.371468
0.763843
1.632315
1.274556
2.037457
2.744645
0.643759
3.591148
2.933608
3.465064
3.996620
3.719428
4.282355
4.523574
3.781805
4.336691
4.126744
4.291306
4.161541
0.830818
4.090070
4.122514
2.484394
2.561904
2.210175
1.513756
1.609112
1.386082
2.258565
1.348777
0.860686
0.841685
0.862016
2.283022
0.770347
1.422755
2.645406
1.846030
1.540658
1.925810
1.841505
2.553319
1.992155
2.357525
2.964602
2.791594
1.580657
0.906395
1.618973
1.751516
1.374983
2.210611
1.525066
3.475715
2.710942
3.210995
2.857304
3.498778
3.470723
3.427744
3.012083
1.421178
2.046390
1.873044
3.014158
1.600571
1.052068
3.586122
2.193394
2.105010
2.144519
2.573998
1.178612
1.147117
2.885164
1.115570
1.448810
0.407327
0.676489
0.373086
1.723183
2.464683
1.502140
3.223779
3.014493
1.590316
4.069444
4.334871
4.240658
4.292511
3.684561
4.229380
3.625595
3.751846
4.250427
3.772164
3.948358
4.091495
3.689605
3.705325
4.069374
4.323354
4.174993
0.461130
0.816014
1.350011
3.730231
1.930902
1.532089
1.679231
1.353146
1.034833
2.963098
3.420955
2.852151
3.805893
3.477955
3.075679
3.895948
3.535330
2.958194
3.781139
3.738604
0.844480
0.849007
2.135600
3.309531
1.435122
2.601154
1.379666
1.044628
2.443050
0.860527
0.542070
0.343440
0.978664
0.583968
0.906482
0.970162
1.067984
1.193294
2.778116
1.807741
2.001599
3.204242
4.119509
2.386068
1.322722
0.431219
1.573658
0.763846
2.134873
1.229282
4.005491
2.465751
3.673926
1.757957
1.660820
2.881327
2.711575
2.896429
2.211695
3.125442
3.218209
1.568887
1.471345
3.423590
3.014664
2.549701
1.958944
2.220891
3.627504
3.505025
1.793726
1.721662
1.993719
1.745068
1.780392
3.765066
2.400398
2.943118
3.480630
1.730922
1.922566
1.591918
2.143803
2.063547
1.888338
2.397959
3.024718
2.370841
3.144878
2.745542
2.172088
1.761218
2.016151
2.433754
2.770298
1.893356
2.184348
1.783246
1.993155
3.221264
2.347380
2.685286
3.669677
2.949715
1.900821
1.790619
1.917395
1.850473
1.524410
2.686903
2.024901
2.512478
2.872299
3.676330
2.753202
2.235741
1.800330
1.824009
1.700923
1.735982
1.938578
1.661204
1.848272
1.664338
1.703854
1.786993
1.634918
2.040311
2.866111
2.540016
1.971461
2.304850
3.259648
1.811448
1.798890
2.009499
2.132129
3.777532
3.274180
2.842401
2.825934
2.091699
2.015513
1.782216
1.738336
2.146211
2.142609
3.089114
3.016557
2.542821
3.235931
2.732509
2.414958
2.304120
2.847994
4.227477
2.400932
1.899005
2.973257
3.420913
2.640123
2.110913
1.706041
1.878634
1.448240
3.636045
2.914494
3.556987
2.386366
1.912158
2.386856
1.795370
2.194031
2.050337
2.937987
1.830454
1.504495
3.560352
1.650476
2.777303
2.161560
2.754599
2.852294
1.995318
2.382358
2.166566
1.661152
1.889330
2.034245
1.899132
1.731545
3.532021
2.353209
2.000576
2.793660
2.660099
3.648790
2.369479
1.829155
1.810506
2.165870
1.917020
1.522411
1.785293
1.907265
2.275396
2.760449
1.764287
2.306340
1.986567
2.654862
3.065814
3.585051
3.753440
3.328953
3.764591
3.011704
2.405716
3.172797
2.205693
3.666957
3.068154
3.483648
2.780739
2.517721
2.611729
3.675476
2.671063
2.843575
2.743427
3.381809
2.523041
2.998619
3.027760
2.191216
1.715108
1.680829
1.757385
2.770536
1.707948
2.593396
2.016937
1.535641
1.798999
2.114721
2.592408
1.591373
1.716544
1.675345
1.841547
1.760434
2.095856
2.152344
2.421800
1.644774
2.805645
3.180230
2.479736
2.619295
3.018664
3.620605
2.278927
2.065831
1.918227
2.317880
1.537052
1.894711
1.694901
2.328544
2.422834
2.424132
1.902324
1.948684
3.189171
3.983288
3.377288
2.863253
2.417531
2.914460
1.920334
3.468406
2.926302
3.665055
3.731796
1.835439
2.001033
3.059281
3.372500
3.210952
3.840159
3.935651
2.972906
3.052907
2.411703
2.233366
2.558634
1.935345
1.795652
2.223913
2.594369
2.587279
2.311096
3.596531
4.067170
3.604354
2.604097
3.070580
2.545314
2.940794
1.966012
2.095338
2.059906
2.965953
1.745452
2.313954
3.790641
1.832366
2.129473
2.712849
2.610988
3.427827
1.806297
1.440498
2.757936
1.668814
1.562797
3.723835
3.817001
2.295855
1.763490
2.617336
2.545527
2.046071
2.324263
2.217691
1.510238
3.450548
2.474173
1.725543
2.905303
2.939960
3.570565
1.701789
1.396677
2.191614
2.362497
1.872008
1.930178
3.077097
2.525257
3.993060
3.674473
2.277023
2.336339
1.890008
2.567742
2.950045
3.432858
2.463532
2.391748
1.733351
1.746823
2.541321
1.478396
2.733443
2.898801
3.125303
2.347714
2.917704
2.391172
1.809579
3.318289
3.135568
1.651434
1.575550
1.456184
1.749637
2.310648
2.510328
2.730094
1.674988
2.807205
2.327008
1.857740
1.459783
2.694158
1.939310
1.731361
1.697520
2.592362
3.117734
1.667614
2.181509
1.685245
3.200137
2.691446
3.061953
3.233010
2.504345
3.823718
2.899979
2.405133
2.930371
1.737107
1.533342
1.873590
2.124961
2.525636
1.953637
3.064654
1.684088
1.545167
1.585351
2.186876
1.697375
3.510753
3.039149
2.045601
1.908532
3.670966
3.142810
3.091429
1.428150
3.501387
3.090063
1.655245
1.885891
3.572909
2.990709
1.514388
1.685539
3.592372
2.195327
1.693445
1.860070
1.803003
2.031680
2.974847
3.162708
3.084301
3.177723
2.792327
2.428736
2.901592
3.295092
1.764989
1.831878
2.665114
2.307994
2.744342
1.982909
1.568476
2.112251
1.441477
1.528846
1.638946
1.443839
1.722052
1.857651
3.244700
3.307170
2.031351
2.221002
1.723401
4.362933
4.264805
4.274472
3.916506
4.637586
4.227368
3.996108
3.989441
3.892070
4.235258
2.624150
1.944442
2.355532
3.060681
1.577522
3.676351
2.570255
1.888012
2.372974
2.843152
1.480344
3.319991
3.850658
4.018323
4.500730
4.284056
4.088774
3.669632
4.263851
3.673079
3.545572
4.072942
3.189643
3.948520
4.056773
3.660211
3.798882
3.111160
2.960927
4.240061
4.469442
3.991543
3.466140
3.617445
3.172647
3.974969
2.378967
2.542622
2.083101
1.709745
1.161621
1.563259
2.785729
3.237076
2.213843
2.696770
3.978845
3.788129
3.573497
3.757126
1.908432
3.492715
3.311835
1.916971
1.764416
1.925028
2.613001
1.192862
1.027012
1.358343
1.839998
1.600892
2.519396
1.671713
2.053113
1.397499
1.766659
1.399895
1.237617
1.048253
1.369532
2.429286
1.139388
1.455084
1.062303
1.862364
1.057425
1.978209
2.059184
0.917325
1.404129
1.559840
1.150902
