# vtk DataFile Version 2.0
Unstructured Grid Example
ASCII
DATASET UNSTRUCTURED_GRID
POINTS 2044 float
0.972610 -0.000281 -0.043333 
-0.000115 0.973669 -0.041706 
-0.973265 -0.000398 -0.043752 
-0.000566 -0.973617 -0.044373 
0.000337 -0.000393 1.037755 
0.968392 -0.095738 -0.043390 
0.954825 -0.190634 -0.043353 
0.932049 -0.282626 -0.041640 
0.899789 -0.373648 -0.042988 
0.858434 -0.460588 -0.044583 
0.809257 -0.542652 -0.044804 
0.752234 -0.619184 -0.042912 
0.688724 -0.689835 -0.042850 
0.617921 -0.753595 -0.043694 
0.540575 -0.810824 -0.044238 
0.458024 -0.858815 -0.044626 
0.371154 -0.898457 -0.044770 
0.282123 -0.931321 -0.043326 
0.189285 -0.954725 -0.044093 
0.094892 -0.968355 -0.044366 
-0.097158 -0.967720 -0.045272 
-0.191238 -0.954484 -0.044810 
-0.283469 -0.930946 -0.044249 
-0.373114 -0.898467 -0.044778 
-0.460444 -0.858980 -0.042846 
-0.542191 -0.809861 -0.043226 
-0.618570 -0.752278 -0.043450 
-0.689503 -0.687948 -0.043799 
-0.753176 -0.617320 -0.043548 
-0.809957 -0.541375 -0.043932 
-0.858878 -0.459034 -0.044128 
-0.899658 -0.372705 -0.043283 
-0.931841 -0.283254 -0.043706 
-0.954168 -0.189591 -0.044493 
-0.968218 -0.095710 -0.044250 
-0.967704 0.094600 -0.044229 
-0.954516 0.189496 -0.046114 
-0.931567 0.282671 -0.046018 
-0.898083 0.372364 -0.047013 
-0.857864 0.459320 -0.045974 
-0.808141 0.540435 -0.046096 
-0.750813 0.616562 -0.046677 
-0.687647 0.687989 -0.045329 
-0.617186 0.752286 -0.045529 
-0.540663 0.809740 -0.045726 
-0.458600 0.858675 -0.044878 
-0.372475 0.898777 -0.044436 
-0.282697 0.931866 -0.043848 
-0.190060 0.954422 -0.043407 
-0.095487 0.969679 -0.042379 
0.095298 0.969592 -0.041958 
0.189075 0.955351 -0.041588 
0.281947 0.931660 -0.041522 
0.371599 0.898577 -0.043791 
0.458540 0.858450 -0.043202 
0.540309 0.810028 -0.043731 
0.616559 0.753781 -0.044772 
0.687307 0.689156 -0.045487 
0.751067 0.618506 -0.045421 
0.808792 0.541566 -0.045190 
0.857326 0.459099 -0.046264 
0.898904 0.372414 -0.045346 
0.931508 0.282363 -0.043771 
0.954068 0.189677 -0.042554 
0.967797 0.094992 -0.043012 
0.971082 -0.000179 0.056486 
0.960913 0.000653 0.157495 
0.940867 0.000651 0.257074 
0.910259 0.000232 0.353167 
0.872259 0.000588 0.448098 
0.825674 0.000553 0.538255 
0.771017 0.000529 0.624417 
0.708095 0.001026 0.703393 
0.638801 0.000932 0.778784 
0.559932 0.000652 0.842981 
0.476635 0.000788 0.900378 
0.388281 0.000568 0.949269 
0.295155 0.000363 0.988572 
0.198790 0.000408 1.015686 
0.099891 -0.000081 1.032381 
0.000573 0.099323 1.032267 
0.000589 0.198424 1.014673 
0.000488 0.295168 0.986772 
-0.000194 0.387951 0.947279 
-0.000381 0.476524 0.899213 
-0.000815 0.560106 0.842714 
-0.001229 0.637494 0.777347 
-0.001370 0.708032 0.703630 
-0.001488 0.771567 0.624456 
-0.001377 0.827257 0.539453 
-0.001260 0.874718 0.450092 
-0.000403 0.911146 0.354800 
-0.000538 0.941778 0.258213 
-0.000257 0.960812 0.158884 
-0.000570 0.971846 0.058761 
-0.099432 -0.000470 1.032627 
-0.197940 0.000176 1.015158 
-0.294352 0.000706 0.987453 
-0.387527 0.000342 0.948711 
-0.476403 0.000308 0.900284 
-0.559637 0.000343 0.843265 
-0.636632 0.000732 0.777500 
-0.707283 0.000725 0.704330 
-0.770375 0.000814 0.625136 
-0.825181 0.000473 0.538889 
-0.872912 0.000450 0.448480 
-0.912268 0.000442 0.354756 
-0.940856 0.000103 0.257143 
-0.960809 -0.000255 0.157868 
-0.971555 -0.000909 0.056860 
0.000352 -0.100344 1.031399 
0.000316 -0.198867 1.013633 
0.000789 -0.295411 0.985570 
0.000787 -0.388762 0.947693 
0.000148 -0.477848 0.900027 
0.000423 -0.561098 0.842093 
0.000102 -0.638332 0.776167 
-0.000210 -0.708928 0.702302 
-0.000300 -0.771925 0.622845 
-0.000375 -0.827609 0.537309 
-0.001136 -0.874264 0.446565 
-0.001144 -0.913330 0.353550 
-0.001164 -0.941291 0.255791 
-0.000468 -0.961211 0.156670 
-0.000913 -0.971276 0.055902 
0.759510 0.442450 0.433013 
0.341528 0.377863 0.879038 
0.333824 0.850843 0.345613 
0.876905 0.318702 0.282393 
0.915347 0.263948 0.203092 
0.935070 0.203354 0.177599 
0.948995 0.192233 0.093077 
0.510579 0.780414 0.289134 
0.522102 0.322482 0.799010 
0.276087 0.679308 0.672847 
0.710427 0.618467 0.251822 
0.721583 0.286161 0.615419 
0.737634 0.617350 0.148586 
0.758408 0.184166 0.609386 
0.210266 0.537741 0.828408 
0.208233 0.814184 0.516692 
0.820385 0.495724 0.172197 
0.822365 0.207152 0.497760 
0.137856 0.422644 0.918502 
0.133966 0.887723 0.393519 
0.400368 0.748085 0.498702 
0.404469 0.519909 0.757517 
0.414334 0.873762 0.115212 
0.428712 0.156007 0.911631 
0.869609 0.420121 0.113611 
0.879689 0.176384 0.391621 
0.092806 0.349519 0.960350 
0.089645 0.921303 0.316633 
0.275139 0.930689 0.073361 
0.287152 0.114560 0.982230 
0.912360 0.335809 0.044832 
0.918783 0.093322 0.320435 
0.561623 0.580345 0.569349 
0.086787 0.284483 0.986698 
0.083512 0.939801 0.248632 
0.218891 0.947600 0.045108 
0.229266 0.087235 1.003162 
0.946498 0.108740 0.197508 
0.937490 0.259972 0.029900 
0.962588 0.094996 0.099005 
0.649639 0.426236 0.615111 
0.643618 0.619284 0.401835 
0.518929 0.710764 0.433471 
0.524982 0.457173 0.716791 
0.750477 0.540191 0.310201 
0.753899 0.345630 0.534372 
0.698340 0.498364 0.480207 
0.383891 0.646402 0.651237 
0.332816 0.187845 0.950052 
0.321410 0.906996 0.147911 
0.384117 0.863407 0.238811 
0.394620 0.275528 0.896600 
0.333425 0.722011 0.590229 
0.334351 0.603737 0.723121 
0.462978 0.763596 0.403365 
0.470150 0.430581 0.778406 
0.274978 0.470653 0.853092 
0.270259 0.832238 0.445642 
0.467621 0.827655 0.210127 
0.480859 0.247966 0.857305 
0.305507 0.537247 0.793799 
0.303718 0.783258 0.517500 
0.232615 0.410862 0.902703 
0.227716 0.872821 0.381353 
0.831546 0.428758 0.277435 
0.850424 0.270280 0.404226 
0.433229 0.350506 0.845038 
0.423635 0.820874 0.318466 
0.368268 0.805469 0.420284 
0.374864 0.447365 0.824691 
0.104530 0.576321 0.822437 
0.102485 0.809063 0.557547 
0.208175 0.755847 0.606187 
0.209031 0.621116 0.760562 
0.078582 0.493666 0.884916 
0.075923 0.862345 0.468727 
0.645841 0.303044 0.698126 
0.634461 0.691045 0.269685 
0.486664 0.842345 0.032506 
0.503320 0.075053 0.877781 
0.178914 0.904668 0.324621 
0.183612 0.356393 0.941481 
0.214572 0.937499 0.152491 
0.224274 0.191947 0.987359 
0.432786 0.677235 0.577710 
0.421652 0.576118 0.698091 
0.268208 0.298428 0.940702 
0.260534 0.902526 0.262253 
0.912581 0.201095 0.279220 
0.896949 0.342543 0.157596 
0.174221 0.488875 0.872432 
0.170206 0.849915 0.463743 
0.413155 0.880670 0.015067 
0.430198 0.058438 0.924855 
0.346628 0.908049 0.043803 
0.360792 0.086108 0.955359 
0.061672 0.427683 0.925493 
0.059199 0.893408 0.397907 
0.107852 0.954215 0.162875 
0.113185 0.201318 1.006880 
0.160243 0.281148 0.976053 
0.154927 0.931300 0.246174 
0.609261 0.497509 0.601612 
0.606358 0.608923 0.478671 
0.544777 0.654141 0.495933 
0.548130 0.513666 0.651736 
0.727711 0.422169 0.511949 
0.730624 0.516385 0.395168 
0.637658 0.538650 0.523979 
0.547166 0.781740 0.193922 
0.561669 0.231246 0.804228 
0.795655 0.496243 0.267753 
0.802514 0.308683 0.477161 
0.669365 0.566504 0.440054 
0.672200 0.461828 0.555396 
0.773690 0.378186 0.473813 
0.700893 0.383043 0.582098 
0.693794 0.589157 0.354455 
0.477728 0.703006 0.499279 
0.481052 0.517842 0.706357 
0.819897 0.370936 0.382096 
0.783354 0.468977 0.346086 
0.882603 0.238629 0.344333 
0.930231 0.260511 0.116411 
0.562318 0.720956 0.345102 
0.571969 0.375381 0.731679 
0.647572 0.368387 0.659185 
0.638547 0.657273 0.339669 
0.504078 0.641454 0.558694 
0.478265 0.596758 0.635170 
0.173447 0.696835 0.691605 
0.587166 0.664403 0.418607 
0.593402 0.441893 0.664595 
0.094839 0.667185 0.741646 
0.095498 0.739200 0.657617 
0.670918 0.682703 0.185123 
0.685370 0.222989 0.689364 
0.968129 0.080426 0.021281 
0.536806 0.155183 0.841877 
0.521547 0.814442 0.115214 
0.741900 0.085714 0.655645 
0.723342 0.650624 0.043519 
0.778191 0.266838 0.544583 
0.769215 0.557141 0.219755 
0.783803 0.573821 0.068338 
0.798571 0.095055 0.574760 
0.140802 0.092687 1.021158 
0.134351 0.963417 0.051574 
0.888393 0.077231 0.402193 
0.876667 0.421164 0.028986 
0.839403 0.490677 0.047979 
0.851086 0.094737 0.479624 
0.860933 0.406867 0.201612 
0.610472 0.264823 0.749960 
0.596965 0.736269 0.230256 
0.058851 0.972048 0.020172 
0.062120 0.061683 1.033370 
0.063425 0.131004 1.025812 
0.060318 0.967764 0.090476 
0.653143 0.721465 0.031911 
0.672713 0.076031 0.737363 
0.573972 0.786044 0.033776 
0.592261 0.076619 0.812049 
0.693812 0.676636 0.099235 
0.710464 0.140838 0.684109 
0.610789 0.747811 0.127111 
0.627579 0.166775 0.765838 
0.779414 0.563715 0.152746 
-0.448935 0.460750 0.771285 
-0.368633 0.849735 0.305939 
-0.850301 0.367032 0.304074 
-0.334731 0.324668 0.906009 
-0.255319 0.282325 0.950627 
-0.217275 0.209171 0.983954 
-0.162811 0.135599 1.011545 
-0.318756 0.786983 0.499547 
-0.786821 0.318134 0.498289 
-0.667452 0.666809 0.241592 
-0.288568 0.630048 0.720535 
-0.629478 0.287293 0.721099 
-0.185999 0.626672 0.763354 
-0.641669 0.189830 0.744694 
-0.523566 0.801975 0.169568 
-0.802374 0.522791 0.170133 
-0.210246 0.524311 0.839362 
-0.499708 0.220008 0.852199 
-0.408248 0.877012 0.095418 
-0.877982 0.408565 0.093515 
-0.745546 0.510264 0.373088 
-0.511226 0.744055 0.374002 
-0.153827 0.882125 0.396075 
-0.882069 0.152357 0.395984 
-0.164445 0.445287 0.901046 
-0.426304 0.163572 0.911710 
-0.336067 0.911728 0.049574 
-0.912059 0.335993 0.046947 
-0.110891 0.937409 0.248983 
-0.936263 0.110599 0.247490 
-0.355143 0.093685 0.957673 
-0.092981 0.358614 0.955558 
-0.580455 0.579297 0.546438 
-0.273014 0.933102 0.042859 
-0.934236 0.272902 0.040713 
-0.084331 0.952911 0.188841 
-0.952437 0.083659 0.188097 
-0.236450 0.111105 0.997388 
-0.108595 0.227751 0.999904 
-0.159046 0.061132 1.021183 
-0.427473 0.625631 0.641883 
-0.625908 0.426452 0.641366 
-0.454612 0.712413 0.503439 
-0.713898 0.452764 0.503435 
-0.549674 0.345605 0.764877 
-0.349540 0.554685 0.761956 
-0.503214 0.502659 0.699572 
-0.639774 0.648565 0.355319 
-0.183777 0.913036 0.296305 
-0.912782 0.182705 0.295244 
-0.270097 0.867020 0.360591 
[...]
POINT_DATA 2044
SCALARS u float 1
LOOKUP_TABLE default
5.417625
5.212379
5.418770
5.455952
3.990318
5.394598
5.360855
5.190269
5.294541
5.446469
5.458319
5.288657
5.254698
5.344401
5.397053
5.495566
5.575663
5.388673
5.447436
5.489184
5.596588
5.506050
5.471015
5.534235
5.264939
5.299171
5.355510
5.383744
5.369296
5.382735
5.420782
5.346655
5.377914
5.509853
5.481734
5.514664
5.639626
5.611431
5.771073
5.630043
5.689177
5.778065
5.590920
5.590482
5.577324
5.509778
5.500346
5.397917
5.393247
5.233983
5.201810
5.190804
5.212338
5.471647
5.370576
5.393878
5.483491
5.575383
5.589017
5.544485
5.687609
5.577506
5.414969
5.340697
5.398233
5.074603
4.494493
3.899739
3.435433
2.666250
1.930500
1.076631
0.420380
0.773941
1.302744
2.029277
2.748255
3.382392
3.709221
3.935843
3.921774
3.599033
3.195007
2.534846
1.906444
1.284246
0.578167
0.406885
1.072791
1.766498
2.380408
3.239741
3.749402
4.369907
4.826759
3.960036
3.645044
3.253969
2.673921
2.011690
1.319018
0.535857
0.303837
1.020820
1.884680
2.602703
3.196616
3.893071
4.464393
5.016296
3.835230
3.494352
3.074853
2.598648
2.031300
1.266319
0.533569
0.543441
1.226156
1.972882
2.748778
3.276614
4.004801
4.557124
5.118861
2.878650
1.726825
3.315083
3.887818
4.247870
4.407517
4.852283
3.666649
0.803955
0.701880
4.043931
1.393541
4.703960
1.445722
1.059195
1.901121
4.603531
2.370091
2.205065
2.805244
2.147718
0.409959
4.682728
2.087329
4.962239
3.119161
2.802681
3.244292
4.799526
3.174575
5.192314
3.471280
1.573265
3.255783
3.719421
4.949200
3.473997
4.272379
5.146391
4.832671
1.250654
2.946123
2.670243
0.174197
3.851264
1.933627
2.402740
0.736024
2.579794
4.509775
4.010606
1.914570
1.324763
0.212990
2.866955
0.665454
1.357524
2.488828
4.232698
1.494589
0.660748
1.883758
2.041352
2.964786
3.904468
2.929210
1.340459
3.426737
2.752329
1.119348
1.049941
1.648880
1.250492
0.447747
1.766879
2.235626
0.475418
3.821125
5.079757
1.594261
3.271114
2.518550
4.373890
3.248920
1.374564
0.307179
2.444199
3.844559
3.779892
4.617147
1.644863
2.361890
5.221154
2.328997
5.048991
2.667080
2.299739
2.828897
4.266486
3.508920
3.032376
3.732842
1.317218
2.288801
2.074766
0.739521
2.163067
3.166803
1.991034
4.285069
0.834159
4.066413
2.427136
2.689477
1.822659
2.471169
1.630232
3.422175
1.996156
0.190229
3.261869
3.583939
3.382605
4.734530
3.382200
0.229031
0.801805
3.376250
1.515488
0.810529
0.506544
2.765314
0.750587
0.306928
0.855285
4.369154
0.600691
5.267285
1.131142
4.627008
0.942554
5.131180
1.979568
4.303976
5.120376
1.621166
3.705664
4.829312
3.149235
5.376959
5.228006
2.578676
4.446779
0.315620
3.981599
4.997982
3.920711
3.822954
4.674473
5.260874
0.279298
5.091453
0.861633
4.900127
0.690050
4.659987
0.448150
4.704114
0.479555
3.779011
3.965539
2.047812
2.583149
3.119487
3.568977
2.162279
2.301234
4.214946
0.385142
0.250411
0.567011
0.196618
4.719599
4.670002
1.249732
1.321351
4.970023
5.095234
3.420945
3.356814
3.109045
3.126082
1.972232
2.128758
5.113417
5.341593
3.910480
4.105562
2.760910
2.662243
2.013754
5.148284
5.294143
4.246830
4.341955
3.312008
3.331170
3.746365
1.021527
1.078996
2.334721
2.326518
0.360269
0.571625
0.553013
3.366479
3.666907
3.787573
3.464250
3.478060
3.817587
3.755659
2.779229
2.883376
4.261816
4.191276
2.663500
2.661690
3.974956
4.000132
4.562594
4.338377
1.750660
1.438620
3.178780
3.034961
3.740719
3.626853
5.264522
5.193510
4.646618
4.667004
5.270712
5.374990
1.192277
1.166406
2.228231
2.382980
4.681140
4.887785
4.309279
4.612170
2.997571
3.200120
4.376999
4.213722
2.597725
4.855035
4.810826
3.049983
3.032301
3.455427
3.540059
5.465556
5.326347
4.883534
5.131149
4.903015
4.762141
1.505193
1.452313
2.164851
2.033278
0.273247
0.301625
1.139202
1.954935
1.990272
0.933655
1.213400
0.799904
0.803285
0.770617
0.393718
0.472318
2.362707
2.737529
2.786498
1.401345
0.816001
2.943519
1.841774
1.862341
0.936734
1.072084
2.624737
2.788706
4.863646
1.684090
1.611534
5.302100
5.190343
0.656812
0.634894
2.196155
2.134094
0.286944
0.314854
0.683901
0.561627
0.792331
0.995307
4.691424
4.877109
2.304036
2.139205
1.590621
1.563916
1.515800
1.514149
5.266726
5.090519
5.324304
5.128414
1.943798
0.793765
0.702663
1.461588
1.568038
0.901029
0.374973
0.352376
1.224555
1.202185
3.880474
4.010032
0.407602
3.613079
3.655944
2.097729
2.721371
3.109342
2.098027
2.232677
3.918771
0.126155
0.433898
0.433529
0.320684
4.444147
4.479105
1.351012
1.311326
4.789080
4.807168
3.219642
3.038101
3.086502
3.170193
2.089897
1.966804
5.013193
5.076796
3.963358
4.139007
2.543475
2.674085
1.645487
5.108319
5.115557
4.265998
4.476334
2.975132
2.996496
0.811058
0.915411
2.054889
2.229714
0.366691
0.429684
0.381587
3.435397
3.710041
3.854717
3.403582
3.357313
3.646907
3.721436
2.621079
2.636817
3.979167
3.929352
2.648191
2.576196
3.927605
3.848951
4.238835
4.206768
1.667901
1.395893
2.906790
2.989012
3.312005
3.501761
4.921215
4.978183
4.442913
4.333813
5.194362
5.036839
1.116933
0.994509
2.413051
2.476280
4.538344
4.594128
4.359672
4.461731
3.062942
2.976276
4.125604
4.101603
2.506212
2.674323
4.543560
4.649757
3.165303
3.137039
3.452693
3.580637
5.208060
5.178513
4.991394
5.056573
4.711241
4.694063
1.310440
1.362157
1.941277
1.783721
0.173267
0.205312
1.012683
1.862322
1.931116
0.880224
1.025332
0.666893
0.586819
0.617658
0.173863
0.479316
2.426030
2.660457
1.131271
0.682295
1.616363
1.805551
0.756988
1.021827
2.166596
2.344026
2.575117
4.567181
1.549641
1.441689
5.008306
4.998705
0.691922
0.529295
2.149338
2.150950
0.212776
0.445713
0.723141
0.595797
0.768045
0.901017
4.803323
4.942228
2.211572
2.275667
1.704307
1.596168
1.445701
1.273067
5.348992
5.241969
5.313300
5.247585
1.911028
0.655114
0.817705
1.730606
1.629354
0.924285
0.264472
0.397736
1.410773
1.129492
3.474976
3.426118
3.794378
3.457047
2.664552
3.458930
1.752056
3.871299
4.052474
4.258038
4.643068
5.121205
3.664651
0.684193
0.771406
3.982046
1.147677
4.506088
1.026349
2.080219
1.174265
4.483316
2.305942
3.107189
2.372516
0.291932
2.221861
4.740056
2.068696
3.009489
4.719840
3.579428
2.752734
4.924580
3.101878
4.982055
3.582119
1.605662
4.046779
3.026821
5.138338
3.438583
4.751464
4.175567
2.932505
1.100944
2.862563
0.311383
1.889713
3.448757
2.197242
1.228015
4.500576
2.634312
4.031895
1.879022
1.549895
0.321003
3.139751
0.463202
2.670871
1.356758
4.185179
1.325693
0.689437
2.127327
1.983950
3.192110
4.076775
2.947871
1.350346
3.679872
0.993752
2.974311
0.994934
1.799179
0.418675
1.359454
2.570771
1.735446
0.400665
3.854035
5.145973
1.598228
3.521100
2.465196
4.543546
3.117479
0.785637
1.849049
2.408948
3.878072
3.652987
4.387686
1.779482
2.511796
5.231253
2.311551
5.072088
2.726632
2.363507
3.002367
4.518437
3.367832
2.864922
4.002744
2.296597
1.240025
0.828285
2.374242
2.878374
2.164183
1.952525
4.247620
0.739640
2.267160
3.730298
1.661902
2.638822
3.213340
3.285237
1.391478
2.432129
0.396002
3.359750
2.532634
3.336112
0.280181
3.467769
0.772885
4.348978
1.027634
1.633843
0.494645
0.660063
2.839033
0.297931
0.915552
0.403223
4.324204
1.095756
4.722209
4.942127
0.897569
4.074922
1.661272
1.539374
5.005513
5.192220
3.736343
2.994931
5.203092
5.087217
2.225826
0.313600
4.084553
3.921940
5.305749
3.729265
4.961659
3.179319
5.024870
0.229768
5.155675
0.839394
1.537237
4.631610
0.536737
0.383154
4.663324
5.163503
4.513586
1.833253
2.278007
2.233361
2.189116
2.083813
2.684495
2.737494
2.769911
2.777713
3.496199
3.676868
1.760917
1.630777
1.598689
3.578171
3.628636
1.739002
3.598929
3.834365
3.509919
3.651394
1.523939
3.691866
4.001338
3.788033
4.116305
4.106425
4.303847
1.902462
2.091053
4.150996
4.203605
4.214237
4.271193
3.971175
3.997459
1.662486
1.966853
2.229405
2.123026
2.230237
2.206093
1.714001
2.265698
4.142893
4.398732
4.320411
4.578604
1.779930
4.490410
1.979535
4.444628
4.500431
4.584219
4.474004
4.639328
1.852757
1.868905
3.124798
3.132857
2.821023
2.964593
1.847269
4.631368
4.596254
2.800939
3.128846
3.029383
1.766489
2.937333
4.457949
4.607447
4.555981
4.471939
3.152956
3.086097
2.972965
2.801875
4.727186
1.950217
1.965544
1.673163
1.646308
3.164390
2.883700
3.158717
3.261567
1.737822
1.888415
4.708209
2.016604
2.408258
4.610542
4.622644
4.584187
4.544878
3.621171
1.889868
4.807437
2.181495
1.829699
4.630664
1.688657
4.555550
1.722828
1.658729
3.729149
4.512716
2.331250
5.052603
4.872952
3.506843
3.535208
2.814728
5.063485
4.604019
4.740060
1.975000
5.035791
1.830192
2.657030
1.650484
1.754887
4.742624
4.922692
4.936841
1.854016
4.844234
1.914479
3.566293
2.770984
2.707928
4.943170
4.817329
3.595207
3.935326
2.451481
1.686803
3.753071
3.561803
3.754459
4.882927
4.851685
4.925601
4.853537
2.970068
2.247406
3.595209
1.620186
2.237036
2.804516
3.857840
2.278329
2.928096
1.864212
2.152444
1.823324
1.745066
3.646586
4.862957
1.715481
3.906064
3.805289
2.249261
3.615545
4.813159
2.253805
3.973700
3.753183
2.537655
2.553218
3.173511
2.321895
1.679318
3.581862
1.877177
1.878896
1.787671
3.318753
3.644891
3.314786
4.926098
4.333430
3.826266
3.710501
4.967463
4.915081
1.902907
2.358049
4.840228
4.038795
3.331918
5.113868
1.839527
5.171222
1.787239
5.075544
5.126592
3.039570
3.101057
4.921622
5.186334
4.989768
1.918993
1.759720
1.845448
2.222202
4.062010
4.795965
2.371687
4.944164
5.234492
4.132274
4.324487
4.234685
4.881137
4.841229
5.009087
4.840111
1.760325
2.808837
3.089810
4.296022
4.984162
2.942028
4.369079
4.447312
3.161128
1.812622
1.902854
4.257350
4.193409
4.957250
4.201592
5.057687
2.707355
4.261464
5.059094
5.039631
2.613709
5.254255
5.125513
5.152687
4.925907
2.597137
4.979546
2.534156
3.601405
5.110363
4.929663
4.984644
3.189883
1.755783
2.186412
1.869305
4.523159
2.314231
4.571475
1.757250
4.263011
1.962721
4.213048
3.353281
1.872731
3.151512
3.131832
1.733845
1.935406
2.664330
1.602572
1.729542
4.049041
2.696488
4.162698
4.979499
4.983758
4.966508
4.953949
3.365470
4.339340
4.337953
4.370048
4.603627
2.460013
3.225385
2.591243
1.975084
4.769313
1.853183
1.848610
3.859690
1.884287
3.633866
2.480117
5.053787
1.773724
2.979417
3.097329
4.748837
5.198239
3.286553
1.798793
1.856132
1.740964
5.144759
4.820805
3.591005
2.751867
1.662580
4.413597
1.740082
2.599342
2.308743
1.701109
1.810498
1.650434
2.282076
1.824045
4.189105
4.656904
3.148135
4.219719
3.942188
2.609153
4.249017
4.053159
4.103750
2.130767
3.200699
3.360784
4.066277
3.313653
2.297991
3.193231
4.244490
4.125588
1.723025
1.710613
3.301441
4.516934
5.227113
2.669852
3.297394
5.136058
2.882912
2.570589
1.682370
5.053573
2.254377
4.649618
1.801681
4.184836
3.280926
3.815174
3.193582
2.081514
3.173027
1.732679
4.021953
4.140401
4.526273
4.482924
1.931904
1.728153
5.157888
2.724632
1.905284
1.700506
2.783288
3.606220
3.644063
1.702813
4.286048
3.879489
4.398759
5.253102
2.618310
5.013885
4.605055
3.735513
3.582145
2.644309
4.552540
4.567210
5.122102
2.779080
3.751672
4.171163
1.740780
3.992987
4.048617
1.977766
3.256977
2.624333
1.796736
1.749806
5.070250
1.730574
1.738331
5.070069
1.992959
1.733112
0.876722
4.182987
4.313390
2.909590
3.086485
2.501475
2.616275
1.385019
1.415668
1.941217
2.958760
0.859196
0.833991
3.658283
2.405051
2.954929
2.353257
1.402249
2.001743
1.894780
3.078975
2.358313
1.077627
1.011692
1.987894
3.551493
4.107315
3.733502
2.758315
3.738113
4.445822
4.508082
3.709340
4.496283
4.353892
4.596838
3.930843
3.811563
4.510770
3.841835
2.558986
3.960373
4.010830
3.666936
3.800704
3.206869
4.274363
4.451461
3.557199
4.398250
4.583945
4.404356
3.633535
2.554250
3.885765
4.404612
3.755516
2.406725
1.507005
2.314210
2.186594
1.618863
1.509029
0.846563
1.694985
1.668745
2.286419
1.369811
1.560953
2.700155
0.883136
2.589175
1.850768
1.928769
2.615723
1.649789
2.329814
2.170538
2.430294
2.647804
0.941310
3.358692
4.149560
3.858492
3.283306
3.264648
3.779265
3.242579
4.080435
2.695687
3.839199
4.233704
1.058339
0.977459
1.407244
1.033021
3.125242
2.518705
1.475120
0.954019
1.842486
2.967448
2.200201
2.861292
2.884881
0.401262
0.433595
1.343268
0.427032
1.220796
2.150786
2.090056
1.362873
0.683677
0.552534
2.070796
1.322220
1.461278
0.462834
3.756732
3.499383
2.284348
2.238483
3.130882
3.280050
3.748677
3.656564
2.930158
3.423679
3.374439
3.555463
2.889498
4.168713
3.584762
3.522541
4.058037
2.114246
3.874397
4.070095
4.214493
4.363764
2.226568
3.876078
3.577822
3.400493
2.746525
3.794597
1.484424
1.696702
0.879793
2.921268
1.474971
1.775843
1.566730
0.933297
1.949256
2.640026
2.441850
1.448413
1.382922
1.768102
1.475209
2.748879
2.362546
0.469813
1.527743
2.256750
1.160261
0.663518
1.734349
2.076879
2.646448
2.450193
1.797543
1.380661
2.185128
2.998437
0.803644
3.327434
2.003127
3.084356
2.084134
2.644498
1.203244
3.982250
1.371468
0.763843
1.632315
1.274556
2.037457
2.744645
0.643759
3.591148
2.933608
3.465064
3.996620
3.719428
4.282355
4.523574
3.781805
4.336691
4.126744
4.291306
4.161541
0.830818
4.090070
4.122514
2.484394
2.561904
2.210175
1.513756
1.609112
1.386082
2.258565
1.348777
0.860686
0.841685
0.862016
2.283022
0.770347
1.422755
2.645406
1.846030
1.540658
1.925810
1.841505
2.553319
1.992155
2.357525
2.964602
2.791594
1.580657
0.906395
1.618973
1.751516
1.374983
2.210611
1.525066
3.475715
2.710942
3.210995
2.857304
3.498778
3.470723
3.427744
3.012083
1.421178
2.046390
1.873044
3.014158
1.600571
1.052068
3.586122
2.193394
2.105010
2.144519
2.573998
1.178612
1.147117
2.885164
1.115570
1.448810
0.407327
0.676489
0.373086
1.723183
2.464683
1.502140
3.223779
3.014493
1.590316
4.069444
4.334871
4.240658
4.292511
3.684561
4.229380
3.625595
3.751846
4.250427
3.772164
3.948358
4.091495
3.689605
3.705325
4.069374
4.323354
4.174993
0.461130
0.816014
1.350011
3.730231
1.930902
1.532089
1.679231
1.353146
1.034833
2.963098
3.420955
2.852151
3.805893
3.477955
3.075679
3.895948
3.535330
2.958194
3.781139
3.738604
0.844480
0.849007
2.135600
3.309531
1.435122
2.601154
1.379666
1.044628
2.443050
0.860527
0.542070
0.343440
0.978664
0.583968
0.906482
0.970162
1.067984
1.193294
2.778116
1.807741
2.001599
3.204242
4.119509
2.386068
1.322722
0.431219
1.573658
0.763846
2.134873
1.229282
4.005491
2.465751
3.673926
1.757957
1.660820
2.881327
2.711575
2.896429
2.211695
3.125442
3.218209
1.568887
1.471345
3.423590
3.014664
2.549701
1.958944
2.220891
3.627504
3.505025
1.793726
1.721662
1.993719
1.745068
1.780392
3.765066
2.400398
2.943118
3.480630
1.730922
1.922566
1.591918
2.143803
2.063547
1.888338
2.397959
3.024718
2.370841
3.144878
2.745542
2.172088
1.761218
2.016151
2.433754
2.770298
1.893356
2.184348
1.783246
1.993155
3.221264
2.347380
2.685286
3.669677
2.949715
1.900821
1.790619
1.917395
1.850473
1.524410
2.686903
2.024901
2.512478
2.872299
3.676330
2.753202
2.235741
1.800330
1.824009
1.700923
1.735982
1.938578
1.661204
1.848272
1.664338
1.703854
1.786993
1.634918
2.040311
2.866111
2.540016
1.971461
2.304850
3.259648
1.811448
1.798890
2.009499
2.132129
3.777532
3.274180
2.842401
2.825934
2.091699
2.015513
1.782216
1.738336
2.146211
2.142609
3.089114
3.016557
2.542821
3.235931
2.732509
2.414958
2.304120
2.847994
4.227477
2.400932
1.899005
2.973257
3.420913
2.640123
2.110913
1.706041
1.878634
1.448240
3.636045
2.914494
3.556987
2.386366
1.912158
2.386856
1.795370
2.194031
2.050337
2.937987
1.830454
1.504495
3.560352
1.650476
2.777303
2.161560
2.754599
2.852294
1.995318
2.382358
2.166566
1.661152
1.889330
2.034245
1.899132
1.731545
3.532021
2.353209
2.000576
2.793660
2.660099
3.648790
2.369479
1.829155
1.810506
2.165870
1.917020
1.522411
1.785293
1.907265
2.275396
2.760449
1.764287
2.306340
1.986567
2.654862
3.065814
3.585051
3.753440
3.328953
3.764591
3.011704
2.405716
3.172797
2.205693
3.666957
3.068154
3.483648
2.780739
2.517721
2.611729
3.675476
2.671063
2.843575
2.743427
3.381809
2.523041
2.998619
3.027760
2.191216
1.715108
1.680829
1.757385
2.770536
1.707948
2.593396
2.016937
1.535641
1.798999
2.114721
2.592408
1.591373
1.716544
1.675345
1.841547
1.760434
2.095856
2.152344
2.421800
1.644774
2.805645
3.180230
2.479736
2.619295
3.018664
3.620605
2.278927
2.065831
1.918227
2.317880
1.537052
1.894711
1.694901
2.328544
2.422834
2.424132
1.902324
1.948684
3.189171
3.983288
3.377288
2.863253
2.417531
2.914460
1.920334
3.468406
2.926302
3.665055
3.731796
1.835439
2.001033
3.059281
3.372500
3.210952
3.840159
3.935651
2.972906
3.052907
2.411703
2.233366
2.558634
1.935345
1.795652
2.223913
2.594369
2.587279
2.311096
3.596531
4.067170
3.604354
2.604097
3.070580
2.545314
2.940794
1.966012
2.095338
2.059906
2.965953
1.745452
2.313954
3.790641
1.832366
2.129473
2.712849
2.610988
3.427827
1.806297
1.440498
2.757936
1.668814
1.562797
3.723835
3.817001
2.295855
1.763490
2.617336
2.545527
2.046071
2.324263
2.217691
1.510238
3.450548
2.474173
1.725543
2.905303
2.939960
3.570565
1.701789
1.396677
2.191614
2.362497
1.872008
1.930178
3.077097
2.525257
3.993060
3.674473
2.277023
2.336339
1.890008
2.567742
2.950045
3.432858
2.463532
2.391748
1.733351
1.746823
2.541321
1.478396
2.733443
2.898801
3.125303
2.347714
2.917704
2.391172
1.809579
3.318289
3.135568
1.651434
1.575550
1.456184
1.749637
2.310648
2.510328
2.730094
1.674988
2.807205
2.327008
1.857740
1.459783
2.694158
1.939310
1.731361
1.697520
2.592362
3.117734
1.667614
2.181509
1.685245
3.200137
2.691446
3.061953
3.233010
2.504345
3.823718
2.899979
2.405133
2.930371
1.737107
1.533342
1.873590
2.124961
2.525636
1.953637
3.064654
1.684088
1.545167
1.585351
2.186876
1.697375
3.510753
3.039149
2.045601
1.908532
3.670966
3.142810
3.091429
1.428150
3.501387
3.090063
1.655245
1.885891
3.572909
2.990709
1.514388
1.685539
3.592372
2.195327
1.693445
1.860070
1.803003
2.031680
2.974847
3.162708
3.084301
3.177723
2.792327
2.428736
2.901592
3.295092
1.764989
1.831878
2.665114
2.307994
2.744342
1.982909
1.568476
2.112251
1.441477
1.528846
1.638946
1.443839
1.722052
1.857651
3.244700
3.307170
2.031351
2.221002
1.723401
4.362933
4.264805
4.274472
3.916506
4.637586
4.227368
3.996108
3.989441
3.892070
4.235258
2.624150
1.944442
2.355532
3.060681
1.577522
3.676351
2.570255
1.888012
2.372974
2.843152
1.480344
3.319991
3.850658
4.018323
4.500730
4.284056
4.088774
3.669632
4.263851
3.673079
3.545572
4.072942
3.189643
3.948520
4.056773
3.660211
3.798882
3.111160
2.960927
4.240061
4.469442
3.991543
3.466140
3.617445
3.172647
3.974969
2.378967
2.542622
2.083101
1.709745
1.161621
1.563259
2.785729
3.237076
2.213843
2.696770
3.978845
3.788129
3.573497
3.757126
1.908432
3.492715
3.311835
1.916971
1.764416
1.925028
2.613001
1.192862
1.027012
1.358343
1.839998
1.600892
2.519396
1.671713
2.053113
1.397499
1.766659
1.399895
1.237617
1.048253
1.369532
2.429286
1.139388
1.455084
1.062303
1.862364
1.057425
1.978209
2.059184
0.917325
1.404129
1.559840
1.150902
