# vtk DataFile Version 2.0
Unstructured Grid Example
ASCII
DATASET UNSTRUCTURED_GRID
POINTS 2044 float
0.890620 -0.001123 -0.173045 
-0.000460 0.894852 -0.166547 
-0.893236 -0.001590 -0.174718 
-0.002259 -0.894641 -0.177198 
0.001348 -0.001571 1.150770 
0.888191 -0.088915 -0.173273 
0.877117 -0.177297 -0.173124 
0.857539 -0.259700 -0.166282 
0.827677 -0.346602 -0.171669 
0.788130 -0.428233 -0.178037 
0.742765 -0.503985 -0.178919 
0.690043 -0.573656 -0.171363 
0.633697 -0.638133 -0.171115 
0.568615 -0.695477 -0.174488 
0.495689 -0.749024 -0.176660 
0.417994 -0.789649 -0.178208 
0.336642 -0.822358 -0.178785 
0.257691 -0.854635 -0.173015 
0.171907 -0.876715 -0.176080 
0.085538 -0.888045 -0.177171 
-0.094588 -0.885508 -0.180786 
-0.179705 -0.875755 -0.178944 
-0.263066 -0.853134 -0.176701 
-0.344469 -0.822400 -0.178815 
-0.427657 -0.790308 -0.171098 
-0.502141 -0.745180 -0.172617 
-0.571205 -0.690217 -0.173513 
-0.636807 -0.630598 -0.174904 
-0.693803 -0.566213 -0.173905 
-0.745561 -0.498883 -0.175436 
-0.789899 -0.422028 -0.176219 
-0.827154 -0.342834 -0.172844 
-0.856709 -0.262209 -0.174536 
-0.874494 -0.173129 -0.177676 
-0.887496 -0.088804 -0.176708 
-0.885446 0.084373 -0.176623 
-0.875882 0.172750 -0.184149 
-0.855614 0.259882 -0.183767 
-0.820863 0.341474 -0.187739 
-0.785852 0.423171 -0.183590 
-0.738311 0.495128 -0.184077 
-0.684369 0.563185 -0.186397 
-0.629398 0.630761 -0.181015 
-0.565677 0.690252 -0.181813 
-0.496041 0.744696 -0.182602 
-0.420294 0.789091 -0.179216 
-0.341919 0.823636 -0.177450 
-0.259982 0.856810 -0.175103 
-0.175001 0.875508 -0.173339 
-0.087913 0.893331 -0.169234 
0.087161 0.892984 -0.167554 
0.171071 0.879218 -0.166075 
0.256988 0.855987 -0.165811 
0.338419 0.822837 -0.174873 
0.420054 0.788192 -0.172521 
0.494626 0.745845 -0.174635 
0.563176 0.696222 -0.178792 
0.628038 0.635422 -0.181646 
0.685381 0.570950 -0.181382 
0.740908 0.499647 -0.180462 
0.783702 0.422289 -0.184749 
0.824144 0.341672 -0.181082 
0.855378 0.258651 -0.174794 
0.874092 0.173472 -0.169932 
0.885814 0.085936 -0.171762 
0.898932 -0.000713 -0.067831 
0.901426 0.002609 0.044959 
0.892752 0.002600 0.157663 
0.869490 0.000927 0.264814 
0.843337 0.002348 0.378357 
0.808328 0.002207 0.486425 
0.765049 0.002113 0.594553 
0.711053 0.004095 0.692275 
0.651994 0.003721 0.796068 
0.572989 0.002604 0.877438 
0.492315 0.003148 0.955627 
0.405038 0.002267 1.025269 
0.309733 0.001450 1.083256 
0.209865 0.001631 1.120157 
0.105501 -0.000323 1.143722 
0.002290 0.103233 1.143269 
0.002352 0.208401 1.116110 
0.001947 0.309785 1.076070 
-0.000773 0.403719 1.017323 
-0.001522 0.491872 0.950973 
-0.003253 0.573684 0.876373 
-0.004906 0.646775 0.790329 
-0.005471 0.710800 0.693221 
-0.005941 0.767247 0.594709 
-0.005497 0.814647 0.491208 
-0.005033 0.853157 0.386319 
-0.001608 0.873031 0.271333 
-0.002149 0.896393 0.162211 
-0.001025 0.901024 0.050507 
-0.002274 0.901985 -0.058747 
-0.103666 -0.001877 1.144706 
-0.206469 0.000702 1.118050 
-0.306526 0.002819 1.078790 
-0.402026 0.001368 1.023042 
-0.491390 0.001230 0.955251 
-0.571811 0.001368 0.878572 
-0.643335 0.002925 0.790941 
-0.707812 0.002895 0.696019 
-0.762485 0.003249 0.597425 
-0.806357 0.001887 0.488954 
-0.845945 0.001795 0.379881 
-0.877511 0.001766 0.271160 
-0.892710 0.000410 0.157939 
-0.901014 -0.001016 0.046448 
-0.900821 -0.003631 -0.066338 
0.001405 -0.107310 1.139803 
0.001264 -0.210173 1.111958 
0.003149 -0.310755 1.071271 
0.003142 -0.406957 1.018977 
0.000589 -0.497159 0.954224 
0.001687 -0.577644 0.873892 
0.000408 -0.650124 0.785616 
-0.000839 -0.714378 0.687920 
-0.001200 -0.768677 0.588279 
-0.001498 -0.816053 0.482647 
-0.004536 -0.851344 0.372234 
-0.004567 -0.881753 0.266345 
-0.004649 -0.894448 0.152538 
-0.001867 -0.902620 0.041662 
-0.003645 -0.899707 -0.070166 
0.732255 0.431240 0.356987 
0.350507 0.389592 0.925666 
0.319741 0.813077 0.260805 
0.830582 0.306928 0.183184 
0.861336 0.252175 0.096221 
0.876227 0.194335 0.067864 
0.881546 0.180513 -0.026100 
0.484649 0.745078 0.194978 
0.530663 0.328147 0.819336 
0.271704 0.679257 0.653456 
0.672458 0.588397 0.148022 
0.717005 0.285149 0.576226 
0.688269 0.581921 0.030009 
0.752320 0.185784 0.568924 
0.212684 0.549142 0.856053 
0.204568 0.799250 0.465085 
0.770232 0.469548 0.054714 
0.802664 0.204355 0.433644 
0.142599 0.437248 0.979044 
0.127068 0.856129 0.320939 
0.391670 0.728835 0.441654 
0.408045 0.526340 0.766500 
0.386765 0.817219 -0.001559 
0.444182 0.161348 0.968444 
0.809182 0.392875 -0.010333 
0.847799 0.171923 0.309348 
0.096637 0.364996 1.038118 
0.084016 0.882192 0.233668 
0.252540 0.865096 -0.043550 
0.300513 0.120971 1.070920 
0.844703 0.312103 -0.083584 
0.879883 0.090653 0.230173 
0.552250 0.570760 0.526850 
0.091625 0.298889 1.077657 
0.078546 0.890381 0.155723 
0.200927 0.878662 -0.075627 
0.242361 0.092600 1.100539 
0.887206 0.105112 0.092076 
0.866580 0.240798 -0.096010 
0.893657 0.089319 -0.019121 
0.644111 0.422383 0.580333 
0.620067 0.596998 0.324944 
0.501979 0.688002 0.363363 
0.526150 0.458012 0.712072 
0.713371 0.517832 0.210085 
0.740262 0.343490 0.481371 
0.679783 0.488055 0.415545 
0.381169 0.644087 0.630698 
0.346097 0.195191 1.021531 
0.300545 0.849592 0.035721 
0.363633 0.816473 0.137408 
0.405575 0.284032 0.949027 
0.329638 0.714219 0.553719 
0.333336 0.607662 0.718654 
0.447235 0.735897 0.328670 
0.475874 0.437354 0.795039 
0.280605 0.480411 0.889857 
0.261761 0.806577 0.380535 
0.439601 0.778945 0.104222 
0.492466 0.255327 0.897346 
0.307100 0.545200 0.810666 
0.299953 0.768571 0.466343 
0.239470 0.422462 0.958932 
0.219908 0.839603 0.304621 
0.790001 0.413021 0.176156 
0.818660 0.265575 0.327722 
0.442031 0.358629 0.881068 
0.403717 0.784569 0.230680 
0.356332 0.777186 0.348623 
0.382673 0.456769 0.853946 
0.105891 0.587807 0.849835 
0.097724 0.796428 0.512837 
0.204690 0.749448 0.571525 
0.208105 0.631140 0.768276 
0.081572 0.508380 0.932658 
0.070954 0.842520 0.408792 
0.650354 0.304434 0.685515 
0.604913 0.657242 0.171203 
0.448983 0.779619 -0.091382 
0.515498 0.078525 0.921126 
0.171155 0.864517 0.241479 
0.189914 0.368356 1.011525 
0.198266 0.878814 0.044607 
0.237011 0.202169 1.077923 
0.427630 0.668007 0.540238 
0.422715 0.577895 0.689640 
0.278120 0.309160 1.008375 
0.247476 0.855923 0.164702 
0.865152 0.195768 0.183381 
0.838951 0.322998 0.042020 
0.179973 0.501576 0.916888 
0.163942 0.826970 0.401213 
0.378956 0.812109 -0.111428 
0.447012 0.061767 0.988558 
0.318364 0.840548 -0.079069 
0.374926 0.089871 1.029474 
0.064213 0.443971 0.988513 
0.054334 0.860385 0.325062 
0.099667 0.895155 0.057761 
0.120964 0.211278 1.105463 
0.167144 0.292646 1.060892 
0.145917 0.882175 0.152981 
0.601751 0.492789 0.565372 
0.590160 0.594566 0.417561 
0.532010 0.640748 0.440154 
0.545400 0.510971 0.631143 
0.711565 0.415989 0.453170 
0.700561 0.499105 0.312442 
0.623562 0.528846 0.470260 
0.514664 0.734877 0.086781 
0.572577 0.235838 0.824678 
0.755200 0.474870 0.162049 
0.781199 0.307652 0.411808 
0.647917 0.550153 0.368809 
0.659238 0.455760 0.505792 
0.752291 0.373323 0.407347 
0.690894 0.380015 0.537120 
0.662546 0.565308 0.265850 
0.468525 0.687970 0.445557 
0.481797 0.519686 0.701349 
0.784773 0.361672 0.297145 
0.746907 0.453680 0.252583 
0.842483 0.233374 0.257484 
0.866603 0.245638 -0.000697 
0.539062 0.689879 0.257517 
0.577602 0.378432 0.732703 
0.647405 0.367175 0.636507 
0.611365 0.628871 0.252491 
0.497182 0.631094 0.517611 
0.476090 0.593357 0.612570 
0.169051 0.698500 0.678049 
0.566653 0.642827 0.346158 
0.591557 0.439148 0.643594 
0.091001 0.674674 0.743828 
0.091422 0.736683 0.633870 
0.630827 0.647583 0.073432 
0.689328 0.225758 0.673050 
0.888995 0.074139 -0.105043 
0.547564 0.159846 0.871694 
0.486627 0.762138 0.000229 
0.740054 0.089152 0.629234 
0.668482 0.606922 -0.083777 
0.766063 0.266438 0.489840 
0.727347 0.530003 0.108523 
0.728189 0.536343 -0.060260 
0.788311 0.095018 0.530001 
0.149315 0.097754 1.125652 
0.123556 0.895073 -0.066425 
0.854880 0.076469 0.319530 
0.809177 0.390826 -0.104132 
0.777572 0.457017 -0.082299 
0.826496 0.094413 0.410847 
0.808491 0.386687 0.088886 
0.618478 0.267334 0.753045 
0.564400 0.698561 0.129080 
0.053697 0.899411 -0.101231 
0.066749 0.064540 1.144291 
0.068305 0.137496 1.133792 
0.055895 0.901984 -0.024348 
0.601612 0.671418 -0.098645 
0.679650 0.078901 0.734868 
0.529611 0.730083 -0.091518 
0.602693 0.079934 0.833862 
0.644549 0.637363 -0.024439 
0.712717 0.144188 0.664985 
0.570275 0.701448 0.010357 
0.637715 0.169636 0.772924 
0.730799 0.532214 0.032754 
-0.458093 0.466773 0.779309 
-0.352734 0.808649 0.208385 
-0.810912 0.346339 0.200939 
-0.345336 0.336215 0.961854 
-0.263739 0.293780 1.022400 
-0.225287 0.218606 1.071442 
-0.168821 0.141183 1.112302 
-0.313269 0.771310 0.440595 
-0.770663 0.310785 0.435570 
-0.631911 0.629344 0.133950 
-0.294761 0.634647 0.712820 
-0.632369 0.289669 0.715074 
-0.192639 0.638857 0.771440 
-0.645678 0.193686 0.744976 
-0.492534 0.750496 0.050161 
-0.752090 0.489441 0.052419 
-0.219998 0.539568 0.869778 
-0.509797 0.226563 0.887640 
-0.379759 0.813359 -0.026870 
-0.817233 0.381024 -0.034469 
-0.718695 0.487823 0.282729 
-0.491667 0.712741 0.286382 
-0.152642 0.850618 0.313849 
-0.850393 0.146772 0.313487 
-0.172343 0.461802 0.953825 
-0.439622 0.170171 0.970146 
-0.311274 0.843952 -0.076003 
-0.845276 0.310979 -0.086492 
-0.106321 0.891931 0.148089 
-0.887355 0.105154 0.142125 
-0.368800 0.098908 1.034497 
-0.097732 0.373624 1.029304 
-0.571203 0.566576 0.491610 
-0.253091 0.863630 -0.083796 
-0.868158 0.252641 -0.092366 
-0.081007 0.899871 0.080926 
-0.897977 0.078323 0.077956 
-0.246036 0.117035 1.090521 
-0.111128 0.239079 1.093543 
-0.166443 0.064076 1.127000 
-0.427323 0.622344 0.613136 
-0.623447 0.423245 0.611072 
-0.447787 0.694588 0.440123 
-0.700518 0.440404 0.440104 
-0.556016 0.350809 0.770945 
-0.359104 0.562488 0.772434 
-0.507422 0.505207 0.684700 
-0.617621 0.620029 0.267072 
-0.178946 0.873713 0.200293 
-0.872697 0.174666 0.196057 
[...]
POINT_DATA 2044
SCALARS u float 1
LOOKUP_TABLE default
5.417625
5.212379
5.418770
5.455952
3.990318
5.394598
5.360855
5.190269
5.294541
5.446469
5.458319
5.288657
5.254698
5.344401
5.397053
5.495566
5.575663
5.388673
5.447436
5.489184
5.596588
5.506050
5.471015
5.534235
5.264939
5.299171
5.355510
5.383744
5.369296
5.382735
5.420782
5.346655
5.377914
5.509853
5.481734
5.514664
5.639626
5.611431
5.771073
5.630043
5.689177
5.778065
5.590920
5.590482
5.577324
5.509778
5.500346
5.397917
5.393247
5.233983
5.201810
5.190804
5.212338
5.471647
5.370576
5.393878
5.483491
5.575383
5.589017
5.544485
5.687609
5.577506
5.414969
5.340697
5.398233
5.074603
4.494493
3.899739
3.435433
2.666250
1.930500
1.076631
0.420380
0.773941
1.302744
2.029277
2.748255
3.382392
3.709221
3.935843
3.921774
3.599033
3.195007
2.534846
1.906444
1.284246
0.578167
0.406885
1.072791
1.766498
2.380408
3.239741
3.749402
4.369907
4.826759
3.960036
3.645044
3.253969
2.673921
2.011690
1.319018
0.535857
0.303837
1.020820
1.884680
2.602703
3.196616
3.893071
4.464393
5.016296
3.835230
3.494352
3.074853
2.598648
2.031300
1.266319
0.533569
0.543441
1.226156
1.972882
2.748778
3.276614
4.004801
4.557124
5.118861
2.878650
1.726825
3.315083
3.887818
4.247870
4.407517
4.852283
3.666649
0.803955
0.701880
4.043931
1.393541
4.703960
1.445722
1.059195
1.901121
4.603531
2.370091
2.205065
2.805244
2.147718
0.409959
4.682728
2.087329
4.962239
3.119161
2.802681
3.244292
4.799526
3.174575
5.192314
3.471280
1.573265
3.255783
3.719421
4.949200
3.473997
4.272379
5.146391
4.832671
1.250654
2.946123
2.670243
0.174197
3.851264
1.933627
2.402740
0.736024
2.579794
4.509775
4.010606
1.914570
1.324763
0.212990
2.866955
0.665454
1.357524
2.488828
4.232698
1.494589
0.660748
1.883758
2.041352
2.964786
3.904468
2.929210
1.340459
3.426737
2.752329
1.119348
1.049941
1.648880
1.250492
0.447747
1.766879
2.235626
0.475418
3.821125
5.079757
1.594261
3.271114
2.518550
4.373890
3.248920
1.374564
0.307179
2.444199
3.844559
3.779892
4.617147
1.644863
2.361890
5.221154
2.328997
5.048991
2.667080
2.299739
2.828897
4.266486
3.508920
3.032376
3.732842
1.317218
2.288801
2.074766
0.739521
2.163067
3.166803
1.991034
4.285069
0.834159
4.066413
2.427136
2.689477
1.822659
2.471169
1.630232
3.422175
1.996156
0.190229
3.261869
3.583939
3.382605
4.734530
3.382200
0.229031
0.801805
3.376250
1.515488
0.810529
0.506544
2.765314
0.750587
0.306928
0.855285
4.369154
0.600691
5.267285
1.131142
4.627008
0.942554
5.131180
1.979568
4.303976
5.120376
1.621166
3.705664
4.829312
3.149235
5.376959
5.228006
2.578676
4.446779
0.315620
3.981599
4.997982
3.920711
3.822954
4.674473
5.260874
0.279298
5.091453
0.861633
4.900127
0.690050
4.659987
0.448150
4.704114
0.479555
3.779011
3.965539
2.047812
2.583149
3.119487
3.568977
2.162279
2.301234
4.214946
0.385142
0.250411
0.567011
0.196618
4.719599
4.670002
1.249732
1.321351
4.970023
5.095234
3.420945
3.356814
3.109045
3.126082
1.972232
2.128758
5.113417
5.341593
3.910480
4.105562
2.760910
2.662243
2.013754
5.148284
5.294143
4.246830
4.341955
3.312008
3.331170
3.746365
1.021527
1.078996
2.334721
2.326518
0.360269
0.571625
0.553013
3.366479
3.666907
3.787573
3.464250
3.478060
3.817587
3.755659
2.779229
2.883376
4.261816
4.191276
2.663500
2.661690
3.974956
4.000132
4.562594
4.338377
1.750660
1.438620
3.178780
3.034961
3.740719
3.626853
5.264522
5.193510
4.646618
4.667004
5.270712
5.374990
1.192277
1.166406
2.228231
2.382980
4.681140
4.887785
4.309279
4.612170
2.997571
3.200120
4.376999
4.213722
2.597725
4.855035
4.810826
3.049983
3.032301
3.455427
3.540059
5.465556
5.326347
4.883534
5.131149
4.903015
4.762141
1.505193
1.452313
2.164851
2.033278
0.273247
0.301625
1.139202
1.954935
1.990272
0.933655
1.213400
0.799904
0.803285
0.770617
0.393718
0.472318
2.362707
2.737529
2.786498
1.401345
0.816001
2.943519
1.841774
1.862341
0.936734
1.072084
2.624737
2.788706
4.863646
1.684090
1.611534
5.302100
5.190343
0.656812
0.634894
2.196155
2.134094
0.286944
0.314854
0.683901
0.561627
0.792331
0.995307
4.691424
4.877109
2.304036
2.139205
1.590621
1.563916
1.515800
1.514149
5.266726
5.090519
5.324304
5.128414
1.943798
0.793765
0.702663
1.461588
1.568038
0.901029
0.374973
0.352376
1.224555
1.202185
3.880474
4.010032
0.407602
3.613079
3.655944
2.097729
2.721371
3.109342
2.098027
2.232677
3.918771
0.126155
0.433898
0.433529
0.320684
4.444147
4.479105
1.351012
1.311326
4.789080
4.807168
3.219642
3.038101
3.086502
3.170193
2.089897
1.966804
5.013193
5.076796
3.963358
4.139007
2.543475
2.674085
1.645487
5.108319
5.115557
4.265998
4.476334
2.975132
2.996496
0.811058
0.915411
2.054889
2.229714
0.366691
0.429684
0.381587
3.435397
3.710041
3.854717
3.403582
3.357313
3.646907
3.721436
2.621079
2.636817
3.979167
3.929352
2.648191
2.576196
3.927605
3.848951
4.238835
4.206768
1.667901
1.395893
2.906790
2.989012
3.312005
3.501761
4.921215
4.978183
4.442913
4.333813
5.194362
5.036839
1.116933
0.994509
2.413051
2.476280
4.538344
4.594128
4.359672
4.461731
3.062942
2.976276
4.125604
4.101603
2.506212
2.674323
4.543560
4.649757
3.165303
3.137039
3.452693
3.580637
5.208060
5.178513
4.991394
5.056573
4.711241
4.694063
1.310440
1.362157
1.941277
1.783721
0.173267
0.205312
1.012683
1.862322
1.931116
0.880224
1.025332
0.666893
0.586819
0.617658
0.173863
0.479316
2.426030
2.660457
1.131271
0.682295
1.616363
1.805551
0.756988
1.021827
2.166596
2.344026
2.575117
4.567181
1.549641
1.441689
5.008306
4.998705
0.691922
0.529295
2.149338
2.150950
0.212776
0.445713
0.723141
0.595797
0.768045
0.901017
4.803323
4.942228
2.211572
2.275667
1.704307
1.596168
1.445701
1.273067
5.348992
5.241969
5.313300
5.247585
1.911028
0.655114
0.817705
1.730606
1.629354
0.924285
0.264472
0.397736
1.410773
1.129492
3.474976
3.426118
3.794378
3.457047
2.664552
3.458930
1.752056
3.871299
4.052474
4.258038
4.643068
5.121205
3.664651
0.684193
0.771406
3.982046
1.147677
4.506088
1.026349
2.080219
1.174265
4.483316
2.305942
3.107189
2.372516
0.291932
2.221861
4.740056
2.068696
3.009489
4.719840
3.579428
2.752734
4.924580
3.101878
4.982055
3.582119
1.605662
4.046779
3.026821
5.138338
3.438583
4.751464
4.175567
2.932505
1.100944
2.862563
0.311383
1.889713
3.448757
2.197242
1.228015
4.500576
2.634312
4.031895
1.879022
1.549895
0.321003
3.139751
0.463202
2.670871
1.356758
4.185179
1.325693
0.689437
2.127327
1.983950
3.192110
4.076775
2.947871
1.350346
3.679872
0.993752
2.974311
0.994934
1.799179
0.418675
1.359454
2.570771
1.735446
0.400665
3.854035
5.145973
1.598228
3.521100
2.465196
4.543546
3.117479
0.785637
1.849049
2.408948
3.878072
3.652987
4.387686
1.779482
2.511796
5.231253
2.311551
5.072088
2.726632
2.363507
3.002367
4.518437
3.367832
2.864922
4.002744
2.296597
1.240025
0.828285
2.374242
2.878374
2.164183
1.952525
4.247620
0.739640
2.267160
3.730298
1.661902
2.638822
3.213340
3.285237
1.391478
2.432129
0.396002
3.359750
2.532634
3.336112
0.280181
3.467769
0.772885
4.348978
1.027634
1.633843
0.494645
0.660063
2.839033
0.297931
0.915552
0.403223
4.324204
1.095756
4.722209
4.942127
0.897569
4.074922
1.661272
1.539374
5.005513
5.192220
3.736343
2.994931
5.203092
5.087217
2.225826
0.313600
4.084553
3.921940
5.305749
3.729265
4.961659
3.179319
5.024870
0.229768
5.155675
0.839394
1.537237
4.631610
0.536737
0.383154
4.663324
5.163503
4.513586
1.833253
2.278007
2.233361
2.189116
2.083813
2.684495
2.737494
2.769911
2.777713
3.496199
3.676868
1.760917
1.630777
1.598689
3.578171
3.628636
1.739002
3.598929
3.834365
3.509919
3.651394
1.523939
3.691866
4.001338
3.788033
4.116305
4.106425
4.303847
1.902462
2.091053
4.150996
4.203605
4.214237
4.271193
3.971175
3.997459
1.662486
1.966853
2.229405
2.123026
2.230237
2.206093
1.714001
2.265698
4.142893
4.398732
4.320411
4.578604
1.779930
4.490410
1.979535
4.444628
4.500431
4.584219
4.474004
4.639328
1.852757
1.868905
3.124798
3.132857
2.821023
2.964593
1.847269
4.631368
4.596254
2.800939
3.128846
3.029383
1.766489
2.937333
4.457949
4.607447
4.555981
4.471939
3.152956
3.086097
2.972965
2.801875
4.727186
1.950217
1.965544
1.673163
1.646308
3.164390
2.883700
3.158717
3.261567
1.737822
1.888415
4.708209
2.016604
2.408258
4.610542
4.622644
4.584187
4.544878
3.621171
1.889868
4.807437
2.181495
1.829699
4.630664
1.688657
4.555550
1.722828
1.658729
3.729149
4.512716
2.331250
5.052603
4.872952
3.506843
3.535208
2.814728
5.063485
4.604019
4.740060
1.975000
5.035791
1.830192
2.657030
1.650484
1.754887
4.742624
4.922692
4.936841
1.854016
4.844234
1.914479
3.566293
2.770984
2.707928
4.943170
4.817329
3.595207
3.935326
2.451481
1.686803
3.753071
3.561803
3.754459
4.882927
4.851685
4.925601
4.853537
2.970068
2.247406
3.595209
1.620186
2.237036
2.804516
3.857840
2.278329
2.928096
1.864212
2.152444
1.823324
1.745066
3.646586
4.862957
1.715481
3.906064
3.805289
2.249261
3.615545
4.813159
2.253805
3.973700
3.753183
2.537655
2.553218
3.173511
2.321895
1.679318
3.581862
1.877177
1.878896
1.787671
3.318753
3.644891
3.314786
4.926098
4.333430
3.826266
3.710501
4.967463
4.915081
1.902907
2.358049
4.840228
4.038795
3.331918
5.113868
1.839527
5.171222
1.787239
5.075544
5.126592
3.039570
3.101057
4.921622
5.186334
4.989768
1.918993
1.759720
1.845448
2.222202
4.062010
4.795965
2.371687
4.944164
5.234492
4.132274
4.324487
4.234685
4.881137
4.841229
5.009087
4.840111
1.760325
2.808837
3.089810
4.296022
4.984162
2.942028
4.369079
4.447312
3.161128
1.812622
1.902854
4.257350
4.193409
4.957250
4.201592
5.057687
2.707355
4.261464
5.059094
5.039631
2.613709
5.254255
5.125513
5.152687
4.925907
2.597137
4.979546
2.534156
3.601405
5.110363
4.929663
4.984644
3.189883
1.755783
2.186412
1.869305
4.523159
2.314231
4.571475
1.757250
4.263011
1.962721
4.213048
3.353281
1.872731
3.151512
3.131832
1.733845
1.935406
2.664330
1.602572
1.729542
4.049041
2.696488
4.162698
4.979499
4.983758
4.966508
4.953949
3.365470
4.339340
4.337953
4.370048
4.603627
2.460013
3.225385
2.591243
1.975084
4.769313
1.853183
1.848610
3.859690
1.884287
3.633866
2.480117
5.053787
1.773724
2.979417
3.097329
4.748837
5.198239
3.286553
1.798793
1.856132
1.740964
5.144759
4.820805
3.591005
2.751867
1.662580
4.413597
1.740082
2.599342
2.308743
1.701109
1.810498
1.650434
2.282076
1.824045
4.189105
4.656904
3.148135
4.219719
3.942188
2.609153
4.249017
4.053159
4.103750
2.130767
3.200699
3.360784
4.066277
3.313653
2.297991
3.193231
4.244490
4.125588
1.723025
1.710613
3.301441
4.516934
5.227113
2.669852
3.297394
5.136058
2.882912
2.570589
1.682370
5.053573
2.254377
4.649618
1.801681
4.184836
3.280926
3.815174
3.193582
2.081514
3.173027
1.732679
4.021953
4.140401
4.526273
4.482924
1.931904
1.728153
5.157888
2.724632
1.905284
1.700506
2.783288
3.606220
3.644063
1.702813
4.286048
3.879489
4.398759
5.253102
2.618310
5.013885
4.605055
3.735513
3.582145
2.644309
4.552540
4.567210
5.122102
2.779080
3.751672
4.171163
1.740780
3.992987
4.048617
1.977766
3.256977
2.624333
1.796736
1.749806
5.070250
1.730574
1.738331
5.070069
1.992959
1.733112
0.876722
4.182987
4.313390
2.909590
3.086485
2.501475
2.616275
1.385019
1.415668
1.941217
2.958760
0.859196
0.833991
3.658283
2.405051
2.954929
2.353257
1.402249
2.001743
1.894780
3.078975
2.358313
1.077627
1.011692
1.987894
3.551493
4.107315
3.733502
2.758315
3.738113
4.445822
4.508082
3.709340
4.496283
4.353892
4.596838
3.930843
3.811563
4.510770
3.841835
2.558986
3.960373
4.010830
3.666936
3.800704
3.206869
4.274363
4.451461
3.557199
4.398250
4.583945
4.404356
3.633535
2.554250
3.885765
4.404612
3.755516
2.406725
1.507005
2.314210
2.186594
1.618863
1.509029
0.846563
1.694985
1.668745
2.286419
1.369811
1.560953
2.700155
0.883136
2.589175
1.850768
1.928769
2.615723
1.649789
2.329814
2.170538
2.430294
2.647804
0.941310
3.358692
4.149560
3.858492
3.283306
3.264648
3.779265
3.242579
4.080435
2.695687
3.839199
4.233704
1.058339
0.977459
1.407244
1.033021
3.125242
2.518705
1.475120
0.954019
1.842486
2.967448
2.200201
2.861292
2.884881
0.401262
0.433595
1.343268
0.427032
1.220796
2.150786
2.090056
1.362873
0.683677
0.552534
2.070796
1.322220
1.461278
0.462834
3.756732
3.499383
2.284348
2.238483
3.130882
3.280050
3.748677
3.656564
2.930158
3.423679
3.374439
3.555463
2.889498
4.168713
3.584762
3.522541
4.058037
2.114246
3.874397
4.070095
4.214493
4.363764
2.226568
3.876078
3.577822
3.400493
2.746525
3.794597
1.484424
1.696702
0.879793
2.921268
1.474971
1.775843
1.566730
0.933297
1.949256
2.640026
2.441850
1.448413
1.382922
1.768102
1.475209
2.748879
2.362546
0.469813
1.527743
2.256750
1.160261
0.663518
1.734349
2.076879
2.646448
2.450193
1.797543
1.380661
2.185128
2.998437
0.803644
3.327434
2.003127
3.084356
2.084134
2.644498
1.203244
3.982250
1.371468
0.763843
1.632315
1.274556
2.037457
2.744645
0.643759
3.591148
2.933608
3.465064
3.996620
3.719428
4.282355
4.523574
3.781805
4.336691
4.126744
4.291306
4.161541
0.830818
4.090070
4.122514
2.484394
2.561904
2.210175
1.513756
1.609112
1.386082
2.258565
1.348777
0.860686
0.841685
0.862016
2.283022
0.770347
1.422755
2.645406
1.846030
1.540658
1.925810
1.841505
2.553319
1.992155
2.357525
2.964602
2.791594
1.580657
0.906395
1.618973
1.751516
1.374983
2.210611
1.525066
3.475715
2.710942
3.210995
2.857304
3.498778
3.470723
3.427744
3.012083
1.421178
2.046390
1.873044
3.014158
1.600571
1.052068
3.586122
2.193394
2.105010
2.144519
2.573998
1.178612
1.147117
2.885164
1.115570
1.448810
0.407327
0.676489
0.373086
1.723183
2.464683
1.502140
3.223779
3.014493
1.590316
4.069444
4.334871
4.240658
4.292511
3.684561
4.229380
3.625595
3.751846
4.250427
3.772164
3.948358
4.091495
3.689605
3.705325
4.069374
4.323354
4.174993
0.461130
0.816014
1.350011
3.730231
1.930902
1.532089
1.679231
1.353146
1.034833
2.963098
3.420955
2.852151
3.805893
3.477955
3.075679
3.895948
3.535330
2.958194
3.781139
3.738604
0.844480
0.849007
2.135600
3.309531
1.435122
2.601154
1.379666
1.044628
2.443050
0.860527
0.542070
0.343440
0.978664
0.583968
0.906482
0.970162
1.067984
1.193294
2.778116
1.807741
2.001599
3.204242
4.119509
2.386068
1.322722
0.431219
1.573658
0.763846
2.134873
1.229282
4.005491
2.465751
3.673926
1.757957
1.660820
2.881327
2.711575
2.896429
2.211695
3.125442
3.218209
1.568887
1.471345
3.423590
3.014664
2.549701
1.958944
2.220891
3.627504
3.505025
1.793726
1.721662
1.993719
1.745068
1.780392
3.765066
2.400398
2.943118
3.480630
1.730922
1.922566
1.591918
2.143803
2.063547
1.888338
2.397959
3.024718
2.370841
3.144878
2.745542
2.172088
1.761218
2.016151
2.433754
2.770298
1.893356
2.184348
1.783246
1.993155
3.221264
2.347380
2.685286
3.669677
2.949715
1.900821
1.790619
1.917395
1.850473
1.524410
2.686903
2.024901
2.512478
2.872299
3.676330
2.753202
2.235741
1.800330
1.824009
1.700923
1.735982
1.938578
1.661204
1.848272
1.664338
1.703854
1.786993
1.634918
2.040311
2.866111
2.540016
1.971461
2.304850
3.259648
1.811448
1.798890
2.009499
2.132129
3.777532
3.274180
2.842401
2.825934
2.091699
2.015513
1.782216
1.738336
2.146211
2.142609
3.089114
3.016557
2.542821
3.235931
2.732509
2.414958
2.304120
2.847994
4.227477
2.400932
1.899005
2.973257
3.420913
2.640123
2.110913
1.706041
1.878634
1.448240
3.636045
2.914494
3.556987
2.386366
1.912158
2.386856
1.795370
2.194031
2.050337
2.937987
1.830454
1.504495
3.560352
1.650476
2.777303
2.161560
2.754599
2.852294
1.995318
2.382358
2.166566
1.661152
1.889330
2.034245
1.899132
1.731545
3.532021
2.353209
2.000576
2.793660
2.660099
3.648790
2.369479
1.829155
1.810506
2.165870
1.917020
1.522411
1.785293
1.907265
2.275396
2.760449
1.764287
2.306340
1.986567
2.654862
3.065814
3.585051
3.753440
3.328953
3.764591
3.011704
2.405716
3.172797
2.205693
3.666957
3.068154
3.483648
2.780739
2.517721
2.611729
3.675476
2.671063
2.843575
2.743427
3.381809
2.523041
2.998619
3.027760
2.191216
1.715108
1.680829
1.757385
2.770536
1.707948
2.593396
2.016937
1.535641
1.798999
2.114721
2.592408
1.591373
1.716544
1.675345
1.841547
1.760434
2.095856
2.152344
2.421800
1.644774
2.805645
3.180230
2.479736
2.619295
3.018664
3.620605
2.278927
2.065831
1.918227
2.317880
1.537052
1.894711
1.694901
2.328544
2.422834
2.424132
1.902324
1.948684
3.189171
3.983288
3.377288
2.863253
2.417531
2.914460
1.920334
3.468406
2.926302
3.665055
3.731796
1.835439
2.001033
3.059281
3.372500
3.210952
3.840159
3.935651
2.972906
3.052907
2.411703
2.233366
2.558634
1.935345
1.795652
2.223913
2.594369
2.587279
2.311096
3.596531
4.067170
3.604354
2.604097
3.070580
2.545314
2.940794
1.966012
2.095338
2.059906
2.965953
1.745452
2.313954
3.790641
1.832366
2.129473
2.712849
2.610988
3.427827
1.806297
1.440498
2.757936
1.668814
1.562797
3.723835
3.817001
2.295855
1.763490
2.617336
2.545527
2.046071
2.324263
2.217691
1.510238
3.450548
2.474173
1.725543
2.905303
2.939960
3.570565
1.701789
1.396677
2.191614
2.362497
1.872008
1.930178
3.077097
2.525257
3.993060
3.674473
2.277023
2.336339
1.890008
2.567742
2.950045
3.432858
2.463532
2.391748
1.733351
1.746823
2.541321
1.478396
2.733443
2.898801
3.125303
2.347714
2.917704
2.391172
1.809579
3.318289
3.135568
1.651434
1.575550
1.456184
1.749637
2.310648
2.510328
2.730094
1.674988
2.807205
2.327008
1.857740
1.459783
2.694158
1.939310
1.731361
1.697520
2.592362
3.117734
1.667614
2.181509
1.685245
3.200137
2.691446
3.061953
3.233010
2.504345
3.823718
2.899979
2.405133
2.930371
1.737107
1.533342
1.873590
2.124961
2.525636
1.953637
3.064654
1.684088
1.545167
1.585351
2.186876
1.697375
3.510753
3.039149
2.045601
1.908532
3.670966
3.142810
3.091429
1.428150
3.501387
3.090063
1.655245
1.885891
3.572909
2.990709
1.514388
1.685539
3.592372
2.195327
1.693445
1.860070
1.803003
2.031680
2.974847
3.162708
3.084301
3.177723
2.792327
2.428736
2.901592
3.295092
1.764989
1.831878
2.665114
2.307994
2.744342
1.982909
1.568476
2.112251
1.441477
1.528846
1.638946
1.443839
1.722052
1.857651
3.244700
3.307170
2.031351
2.221002
1.723401
4.362933
4.264805
4.274472
3.916506
4.637586
4.227368
3.996108
3.989441
3.892070
4.235258
2.624150
1.944442
2.355532
3.060681
1.577522
3.676351
2.570255
1.888012
2.372974
2.843152
1.480344
3.319991
3.850658
4.018323
4.500730
4.284056
4.088774
3.669632
4.263851
3.673079
3.545572
4.072942
3.189643
3.948520
4.056773
3.660211
3.798882
3.111160
2.960927
4.240061
4.469442
3.991543
3.466140
3.617445
3.172647
3.974969
2.378967
2.542622
2.083101
1.709745
1.161621
1.563259
2.785729
3.237076
2.213843
2.696770
3.978845
3.788129
3.573497
3.757126
1.908432
3.492715
3.311835
1.916971
1.764416
1.925028
2.613001
1.192862
1.027012
1.358343
1.839998
1.600892
2.519396
1.671713
2.053113
1.397499
1.766659
1.399895
1.237617
1.048253
1.369532
2.429286
1.139388
1.455084
1.062303
1.862364
1.057425
1.978209
2.059184
0.917325
1.404129
1.559840
1.150902
