# vtk DataFile Version 2.0
Unstructured Grid Example
ASCII
DATASET UNSTRUCTURED_GRID
POINTS 2044 float
1.013757 0.000141 0.021765 
0.000058 1.013225 0.020948 
-1.013428 0.000200 0.021976 
0.000284 -1.013252 0.022287 
-0.000170 0.000198 0.981037 
1.008642 -0.099162 0.021794 
0.993824 -0.197328 0.021775 
0.969443 -0.294132 0.020914 
0.935980 -0.387222 0.021592 
0.893718 -0.476826 0.022393 
0.842627 -0.562059 0.022504 
0.783446 -0.642033 0.021554 
0.716340 -0.715782 0.021522 
0.642667 -0.782762 0.021947 
0.563102 -0.841839 0.022220 
0.478114 -0.893527 0.022415 
0.388474 -0.936649 0.022487 
0.294384 -0.969808 0.021761 
0.198006 -0.993875 0.022147 
0.099587 -1.008660 0.022284 
-0.098448 -1.008980 0.022739 
-0.197025 -0.993996 0.022507 
-0.293708 -0.969997 0.022225 
-0.387490 -0.936643 0.022491 
-0.476898 -0.893444 0.021520 
-0.562290 -0.842323 0.021711 
-0.642341 -0.783424 0.021824 
-0.715949 -0.716730 0.021999 
-0.782973 -0.642969 0.021873 
-0.842275 -0.562700 0.022066 
-0.893496 -0.477606 0.022164 
-0.936045 -0.387696 0.021740 
-0.969547 -0.293816 0.021953 
-0.994154 -0.197853 0.022348 
-1.008729 -0.099176 0.022226 
-1.008987 0.099733 0.022215 
-0.993980 0.197900 0.023162 
-0.969685 0.294109 0.023114 
-0.936837 0.387867 0.023613 
-0.894005 0.477462 0.023091 
-0.843187 0.563173 0.023153 
-0.784160 0.643350 0.023444 
-0.716881 0.716709 0.022767 
-0.643036 0.783420 0.022868 
-0.563058 0.842384 0.022967 
-0.477824 0.893597 0.022541 
-0.387811 0.936488 0.022319 
-0.294096 0.969534 0.022024 
-0.197617 0.994027 0.021802 
-0.099288 1.007996 0.021286 
0.099383 1.008039 0.021074 
0.198111 0.993560 0.020888 
0.294473 0.969638 0.020855 
0.388251 0.936588 0.021995 
0.477855 0.893710 0.021699 
0.563236 0.842239 0.021965 
0.643351 0.782669 0.022488 
0.717052 0.716123 0.022847 
0.784032 0.642373 0.022814 
0.842860 0.562604 0.022698 
0.894275 0.477573 0.023237 
0.936424 0.387842 0.022776 
0.969715 0.294264 0.021985 
0.994205 0.197809 0.021374 
1.008941 0.099537 0.021604 
1.007291 0.000090 0.118877 
0.990767 -0.000328 0.213973 
0.965014 -0.000327 0.306965 
0.930721 -0.000117 0.397509 
0.886774 -0.000295 0.483099 
0.834380 -0.000278 0.564267 
0.774012 -0.000266 0.639404 
0.706610 -0.000515 0.708972 
0.632179 -0.000468 0.770110 
0.553379 -0.000328 0.825688 
0.468766 -0.000396 0.872651 
0.379872 -0.000285 0.911127 
0.287838 -0.000182 0.941053 
0.193232 -0.000205 0.963256 
0.097076 0.000041 0.976502 
-0.000288 0.097361 0.976559 
-0.000296 0.193416 0.963764 
-0.000245 0.287832 0.941956 
0.000097 0.380038 0.912126 
0.000191 0.468821 0.873236 
0.000409 0.553292 0.825822 
0.000617 0.632836 0.770832 
0.000688 0.706642 0.708853 
0.000747 0.773735 0.639385 
0.000691 0.833585 0.563666 
0.000633 0.885539 0.482098 
0.000202 0.930275 0.396689 
0.000270 0.964556 0.306393 
0.000129 0.990817 0.213276 
0.000286 1.006907 0.117735 
-0.097307 0.000236 0.976378 
-0.193659 -0.000088 0.963521 
-0.288242 -0.000355 0.941614 
-0.380251 -0.000172 0.911407 
-0.468882 -0.000155 0.872698 
-0.553528 -0.000172 0.825545 
-0.633269 -0.000368 0.770755 
-0.707018 -0.000364 0.708501 
-0.774334 -0.000409 0.639043 
-0.834628 -0.000237 0.563949 
-0.886446 -0.000226 0.482907 
-0.929712 -0.000222 0.396711 
-0.965019 -0.000052 0.306931 
-0.990819 0.000128 0.213786 
-1.007054 0.000457 0.118689 
-0.000177 -0.096848 0.976995 
-0.000159 -0.193193 0.964287 
-0.000396 -0.287710 0.942560 
-0.000395 -0.379630 0.911918 
-0.000074 -0.468156 0.872827 
-0.000212 -0.552794 0.826134 
-0.000051 -0.632415 0.771425 
0.000106 -0.706192 0.709520 
0.000151 -0.773556 0.640193 
0.000188 -0.833409 0.564742 
0.000571 -0.885767 0.483869 
0.000574 -0.929178 0.397316 
0.000585 -0.964801 0.307610 
0.000235 -0.990617 0.214388 
0.000458 -1.007194 0.119171 
0.773189 0.448076 0.471167 
0.337022 0.371977 0.855636 
0.340892 0.869797 0.388175 
0.900154 0.324611 0.332183 
0.942453 0.269856 0.256727 
0.964602 0.207881 0.232672 
0.982845 0.198115 0.152888 
0.523592 0.798148 0.336388 
0.517805 0.319639 0.788808 
0.278287 0.679334 0.682579 
0.729483 0.633558 0.303916 
0.723880 0.286669 0.635089 
0.762409 0.635131 0.208096 
0.761464 0.183354 0.629693 
0.209052 0.532019 0.814534 
0.210073 0.821678 0.542592 
0.845555 0.508860 0.231159 
0.832253 0.208556 0.529937 
0.135475 0.415316 0.888119 
0.137429 0.903578 0.429945 
0.404734 0.757746 0.527333 
0.402674 0.516681 0.753009 
0.428170 0.902139 0.173816 
0.420948 0.153326 0.883118 
0.899935 0.433795 0.175814 
0.895694 0.178623 0.432911 
0.090883 0.341752 0.921320 
0.092470 0.940932 0.358270 
0.286481 0.963607 0.132035 
0.280447 0.111342 0.937719 
0.946314 0.347706 0.109280 
0.938306 0.094661 0.365734 
0.566327 0.585155 0.590677 
0.084359 0.277253 0.941048 
0.086004 0.964603 0.295260 
0.227906 0.982198 0.105701 
0.222695 0.084542 0.954291 
0.976255 0.110561 0.250421 
0.973077 0.269594 0.093090 
0.997182 0.097845 0.158289 
0.652414 0.428169 0.632565 
0.655438 0.630469 0.440425 
0.527436 0.722187 0.468657 
0.524396 0.456752 0.719160 
0.769099 0.551413 0.360446 
0.760744 0.346704 0.560972 
0.707654 0.503538 0.512658 
0.385256 0.647563 0.661545 
0.326152 0.184158 0.914179 
0.331881 0.935805 0.204216 
0.394398 0.886961 0.289702 
0.389122 0.271260 0.870289 
0.335326 0.725921 0.608552 
0.334861 0.601767 0.725363 
0.470879 0.777498 0.440852 
0.467277 0.427182 0.770059 
0.272154 0.465755 0.834641 
0.274524 0.845116 0.478317 
0.481683 0.852102 0.263278 
0.475034 0.244272 0.837209 
0.304708 0.533256 0.785334 
0.305607 0.790629 0.543175 
0.229174 0.405041 0.874484 
0.231635 0.889492 0.419862 
0.852396 0.436655 0.328263 
0.866366 0.272642 0.442621 
0.428811 0.346430 0.826956 
0.433631 0.839094 0.362523 
0.374257 0.819664 0.456248 
0.370944 0.442646 0.810010 
0.103847 0.570556 0.808687 
0.104875 0.815404 0.579985 
0.209924 0.759059 0.623583 
0.209495 0.616085 0.756690 
0.077082 0.486281 0.860957 
0.078417 0.872294 0.498807 
0.643575 0.302347 0.704455 
0.649290 0.708010 0.319109 
0.505574 0.873826 0.094681 
0.497208 0.073310 0.856027 
0.182808 0.924818 0.366347 
0.180449 0.350388 0.906328 
0.222755 0.966951 0.206634 
0.217882 0.186817 0.941907 
0.435373 0.681867 0.596516 
0.421119 0.575226 0.702332 
0.263233 0.293041 0.906740 
0.267087 0.925915 0.311211 
0.936383 0.203769 0.327319 
0.926057 0.352352 0.215600 
0.171334 0.482501 0.850121 
0.173350 0.861431 0.495124 
0.430319 0.915078 0.078551 
0.421759 0.056767 0.892885 
0.360813 0.941925 0.105468 
0.353699 0.084219 0.918163 
0.060397 0.419509 0.893866 
0.061640 0.909981 0.434465 
0.111960 0.983856 0.215629 
0.109281 0.196320 0.957404 
0.156780 0.275378 0.933476 
0.159450 0.955954 0.292945 
0.613029 0.499878 0.619800 
0.614487 0.616128 0.509340 
0.551185 0.660862 0.523926 
0.549500 0.515019 0.662070 
0.735814 0.425271 0.541448 
0.745711 0.525058 0.436686 
0.644732 0.543570 0.550939 
0.563478 0.805259 0.247692 
0.556194 0.228942 0.793965 
0.815959 0.506970 0.320802 
0.813211 0.309200 0.509959 
0.680129 0.574710 0.475810 
0.678705 0.464873 0.580290 
0.784430 0.380627 0.507171 
0.705911 0.384563 0.604672 
0.709476 0.601126 0.398923 
0.482347 0.710553 0.526241 
0.480678 0.516917 0.708870 
0.837525 0.375585 0.424731 
0.801646 0.476655 0.393012 
0.902738 0.241266 0.387919 
0.962165 0.267976 0.175184 
0.573989 0.736552 0.389059 
0.569141 0.373850 0.731165 
0.647656 0.368995 0.670566 
0.652189 0.671527 0.383420 
0.507539 0.646653 0.579312 
0.479357 0.598465 0.646513 
0.175653 0.695998 0.698408 
0.597460 0.675231 0.454967 
0.594328 0.443271 0.675135 
0.096765 0.663426 0.740550 
0.097544 0.740463 0.669536 
0.691038 0.700328 0.241177 
0.683383 0.221599 0.697552 
1.007843 0.083581 0.084678 
0.531407 0.152842 0.826913 
0.539072 0.840692 0.172922 
0.742826 0.083989 0.668900 
0.750875 0.672557 0.107405 
0.784277 0.267039 0.572056 
0.790227 0.570761 0.275579 
0.811713 0.592630 0.132877 
0.803720 0.095074 0.597222 
0.136529 0.090144 0.968716 
0.139769 0.997717 0.110795 
0.905212 0.077614 0.443680 
0.910538 0.436390 0.095794 
0.870434 0.507570 0.113361 
0.863427 0.094900 0.514141 
0.887251 0.416994 0.258186 
0.606454 0.263563 0.748412 
0.613309 0.755193 0.281033 
0.061438 1.008503 0.081099 
0.059797 0.060249 0.977703 
0.060976 0.127745 0.971620 
0.062537 1.000776 0.148102 
0.679004 0.746583 0.097433 
0.669231 0.074590 0.738616 
0.596235 0.814128 0.096657 
0.587026 0.074955 0.801101 
0.718536 0.696346 0.161302 
0.709334 0.139158 0.693707 
0.631121 0.771079 0.185706 
0.622492 0.165339 0.762281 
0.803812 0.579524 0.212967 
-0.444340 0.457728 0.767258 
-0.376613 0.870354 0.354898 
-0.870070 0.377417 0.355834 
-0.329409 0.318873 0.877982 
-0.251093 0.276576 0.914607 
-0.213253 0.204436 0.940047 
-0.159795 0.132796 0.960978 
-0.321510 0.794849 0.529133 
-0.794930 0.321822 0.529765 
-0.685289 0.685612 0.295614 
-0.285460 0.627741 0.724406 
-0.628027 0.286100 0.724123 
-0.182667 0.620556 0.759296 
-0.639658 0.187895 0.744553 
-0.539139 0.827810 0.229494 
-0.827610 0.539528 0.229210 
-0.205351 0.516653 0.824097 
-0.494644 0.216719 0.834413 
-0.422546 0.908958 0.156790 
-0.908471 0.422387 0.157746 
-0.759021 0.521526 0.418436 
-0.521042 0.759770 0.417976 
-0.154422 0.897938 0.437341 
-0.897966 0.155160 0.437387 
-0.160481 0.436999 0.874558 
-0.419621 0.160260 0.882382 
-0.348509 0.945742 0.112597 
-0.945576 0.348547 0.113916 
-0.113185 0.960232 0.299619 
-0.960808 0.113331 0.300369 
-0.348288 0.091064 0.919118 
-0.090597 0.351081 0.918547 
-0.585099 0.585681 0.573954 
-0.283013 0.967968 0.106423 
-0.967399 0.283070 0.107501 
-0.086000 0.979530 0.243000 
-0.979768 0.086338 0.243373 
-0.231639 0.108129 0.950648 
-0.107324 0.222065 0.952910 
-0.155334 0.059655 0.968077 
-0.427548 0.627281 0.656310 
-0.627142 0.428061 0.656570 
-0.458038 0.721359 0.535216 
-0.720613 0.458967 0.535218 
-0.546491 0.342993 0.761832 
-0.344740 0.550770 0.756697 
-0.501102 0.501381 0.707035 
-0.650892 0.662887 0.399607 
-0.186201 0.932772 0.344490 
-0.932899 0.186739 0.345023 
-0.273988 0.885146 0.406214 
-0.884959 0.274778 0.406270 
-0.606614 0.730565 0.351312 
[...]
POINT_DATA 2044
SCALARS u float 1
LOOKUP_TABLE default
5.417625
5.212379
5.418770
5.455952
3.990318
5.394598
5.360855
5.190269
5.294541
5.446469
5.458319
5.288657
5.254698
5.344401
5.397053
5.495566
5.575663
5.388673
5.447436
5.489184
5.596588
5.506050
5.471015
5.534235
5.264939
5.299171
5.355510
5.383744
5.369296
5.382735
5.420782
5.346655
5.377914
5.509853
5.481734
5.514664
5.639626
5.611431
5.771073
5.630043
5.689177
5.778065
5.590920
5.590482
5.577324
5.509778
5.500346
5.397917
5.393247
5.233983
5.201810
5.190804
5.212338
5.471647
5.370576
5.393878
5.483491
5.575383
5.589017
5.544485
5.687609
5.577506
5.414969
5.340697
5.398233
5.074603
4.494493
3.899739
3.435433
2.666250
1.930500
1.076631
0.420380
0.773941
1.302744
2.029277
2.748255
3.382392
3.709221
3.935843
3.921774
3.599033
3.195007
2.534846
1.906444
1.284246
0.578167
0.406885
1.072791
1.766498
2.380408
3.239741
3.749402
4.369907
4.826759
3.960036
3.645044
3.253969
2.673921
2.011690
1.319018
0.535857
0.303837
1.020820
1.884680
2.602703
3.196616
3.893071
4.464393
5.016296
3.835230
3.494352
3.074853
2.598648
2.031300
1.266319
0.533569
0.543441
1.226156
1.972882
2.748778
3.276614
4.004801
4.557124
5.118861
2.878650
1.726825
3.315083
3.887818
4.247870
4.407517
4.852283
3.666649
0.803955
0.701880
4.043931
1.393541
4.703960
1.445722
1.059195
1.901121
4.603531
2.370091
2.205065
2.805244
2.147718
0.409959
4.682728
2.087329
4.962239
3.119161
2.802681
3.244292
4.799526
3.174575
5.192314
3.471280
1.573265
3.255783
3.719421
4.949200
3.473997
4.272379
5.146391
4.832671
1.250654
2.946123
2.670243
0.174197
3.851264
1.933627
2.402740
0.736024
2.579794
4.509775
4.010606
1.914570
1.324763
0.212990
2.866955
0.665454
1.357524
2.488828
4.232698
1.494589
0.660748
1.883758
2.041352
2.964786
3.904468
2.929210
1.340459
3.426737
2.752329
1.119348
1.049941
1.648880
1.250492
0.447747
1.766879
2.235626
0.475418
3.821125
5.079757
1.594261
3.271114
2.518550
4.373890
3.248920
1.374564
0.307179
2.444199
3.844559
3.779892
4.617147
1.644863
2.361890
5.221154
2.328997
5.048991
2.667080
2.299739
2.828897
4.266486
3.508920
3.032376
3.732842
1.317218
2.288801
2.074766
0.739521
2.163067
3.166803
1.991034
4.285069
0.834159
4.066413
2.427136
2.689477
1.822659
2.471169
1.630232
3.422175
1.996156
0.190229
3.261869
3.583939
3.382605
4.734530
3.382200
0.229031
0.801805
3.376250
1.515488
0.810529
0.506544
2.765314
0.750587
0.306928
0.855285
4.369154
0.600691
5.267285
1.131142
4.627008
0.942554
5.131180
1.979568
4.303976
5.120376
1.621166
3.705664
4.829312
3.149235
5.376959
5.228006
2.578676
4.446779
0.315620
3.981599
4.997982
3.920711
3.822954
4.674473
5.260874
0.279298
5.091453
0.861633
4.900127
0.690050
4.659987
0.448150
4.704114
0.479555
3.779011
3.965539
2.047812
2.583149
3.119487
3.568977
2.162279
2.301234
4.214946
0.385142
0.250411
0.567011
0.196618
4.719599
4.670002
1.249732
1.321351
4.970023
5.095234
3.420945
3.356814
3.109045
3.126082
1.972232
2.128758
5.113417
5.341593
3.910480
4.105562
2.760910
2.662243
2.013754
5.148284
5.294143
4.246830
4.341955
3.312008
3.331170
3.746365
1.021527
1.078996
2.334721
2.326518
0.360269
0.571625
0.553013
3.366479
3.666907
3.787573
3.464250
3.478060
3.817587
3.755659
2.779229
2.883376
4.261816
4.191276
2.663500
2.661690
3.974956
4.000132
4.562594
4.338377
1.750660
1.438620
3.178780
3.034961
3.740719
3.626853
5.264522
5.193510
4.646618
4.667004
5.270712
5.374990
1.192277
1.166406
2.228231
2.382980
4.681140
4.887785
4.309279
4.612170
2.997571
3.200120
4.376999
4.213722
2.597725
4.855035
4.810826
3.049983
3.032301
3.455427
3.540059
5.465556
5.326347
4.883534
5.131149
4.903015
4.762141
1.505193
1.452313
2.164851
2.033278
0.273247
0.301625
1.139202
1.954935
1.990272
0.933655
1.213400
0.799904
0.803285
0.770617
0.393718
0.472318
2.362707
2.737529
2.786498
1.401345
0.816001
2.943519
1.841774
1.862341
0.936734
1.072084
2.624737
2.788706
4.863646
1.684090
1.611534
5.302100
5.190343
0.656812
0.634894
2.196155
2.134094
0.286944
0.314854
0.683901
0.561627
0.792331
0.995307
4.691424
4.877109
2.304036
2.139205
1.590621
1.563916
1.515800
1.514149
5.266726
5.090519
5.324304
5.128414
1.943798
0.793765
0.702663
1.461588
1.568038
0.901029
0.374973
0.352376
1.224555
1.202185
3.880474
4.010032
0.407602
3.613079
3.655944
2.097729
2.721371
3.109342
2.098027
2.232677
3.918771
0.126155
0.433898
0.433529
0.320684
4.444147
4.479105
1.351012
1.311326
4.789080
4.807168
3.219642
3.038101
3.086502
3.170193
2.089897
1.966804
5.013193
5.076796
3.963358
4.139007
2.543475
2.674085
1.645487
5.108319
5.115557
4.265998
4.476334
2.975132
2.996496
0.811058
0.915411
2.054889
2.229714
0.366691
0.429684
0.381587
3.435397
3.710041
3.854717
3.403582
3.357313
3.646907
3.721436
2.621079
2.636817
3.979167
3.929352
2.648191
2.576196
3.927605
3.848951
4.238835
4.206768
1.667901
1.395893
2.906790
2.989012
3.312005
3.501761
4.921215
4.978183
4.442913
4.333813
5.194362
5.036839
1.116933
0.994509
2.413051
2.476280
4.538344
4.594128
4.359672
4.461731
3.062942
2.976276
4.125604
4.101603
2.506212
2.674323
4.543560
4.649757
3.165303
3.137039
3.452693
3.580637
5.208060
5.178513
4.991394
5.056573
4.711241
4.694063
1.310440
1.362157
1.941277
1.783721
0.173267
0.205312
1.012683
1.862322
1.931116
0.880224
1.025332
0.666893
0.586819
0.617658
0.173863
0.479316
2.426030
2.660457
1.131271
0.682295
1.616363
1.805551
0.756988
1.021827
2.166596
2.344026
2.575117
4.567181
1.549641
1.441689
5.008306
4.998705
0.691922
0.529295
2.149338
2.150950
0.212776
0.445713
0.723141
0.595797
0.768045
0.901017
4.803323
4.942228
2.211572
2.275667
1.704307
1.596168
1.445701
1.273067
5.348992
5.241969
5.313300
5.247585
1.911028
0.655114
0.817705
1.730606
1.629354
0.924285
0.264472
0.397736
1.410773
1.129492
3.474976
3.426118
3.794378
3.457047
2.664552
3.458930
1.752056
3.871299
4.052474
4.258038
4.643068
5.121205
3.664651
0.684193
0.771406
3.982046
1.147677
4.506088
1.026349
2.080219
1.174265
4.483316
2.305942
3.107189
2.372516
0.291932
2.221861
4.740056
2.068696
3.009489
4.719840
3.579428
2.752734
4.924580
3.101878
4.982055
3.582119
1.605662
4.046779
3.026821
5.138338
3.438583
4.751464
4.175567
2.932505
1.100944
2.862563
0.311383
1.889713
3.448757
2.197242
1.228015
4.500576
2.634312
4.031895
1.879022
1.549895
0.321003
3.139751
0.463202
2.670871
1.356758
4.185179
1.325693
0.689437
2.127327
1.983950
3.192110
4.076775
2.947871
1.350346
3.679872
0.993752
2.974311
0.994934
1.799179
0.418675
1.359454
2.570771
1.735446
0.400665
3.854035
5.145973
1.598228
3.521100
2.465196
4.543546
3.117479
0.785637
1.849049
2.408948
3.878072
3.652987
4.387686
1.779482
2.511796
5.231253
2.311551
5.072088
2.726632
2.363507
3.002367
4.518437
3.367832
2.864922
4.002744
2.296597
1.240025
0.828285
2.374242
2.878374
2.164183
1.952525
4.247620
0.739640
2.267160
3.730298
1.661902
2.638822
3.213340
3.285237
1.391478
2.432129
0.396002
3.359750
2.532634
3.336112
0.280181
3.467769
0.772885
4.348978
1.027634
1.633843
0.494645
0.660063
2.839033
0.297931
0.915552
0.403223
4.324204
1.095756
4.722209
4.942127
0.897569
4.074922
1.661272
1.539374
5.005513
5.192220
3.736343
2.994931
5.203092
5.087217
2.225826
0.313600
4.084553
3.921940
5.305749
3.729265
4.961659
3.179319
5.024870
0.229768
5.155675
0.839394
1.537237
4.631610
0.536737
0.383154
4.663324
5.163503
4.513586
1.833253
2.278007
2.233361
2.189116
2.083813
2.684495
2.737494
2.769911
2.777713
3.496199
3.676868
1.760917
1.630777
1.598689
3.578171
3.628636
1.739002
3.598929
3.834365
3.509919
3.651394
1.523939
3.691866
4.001338
3.788033
4.116305
4.106425
4.303847
1.902462
2.091053
4.150996
4.203605
4.214237
4.271193
3.971175
3.997459
1.662486
1.966853
2.229405
2.123026
2.230237
2.206093
1.714001
2.265698
4.142893
4.398732
4.320411
4.578604
1.779930
4.490410
1.979535
4.444628
4.500431
4.584219
4.474004
4.639328
1.852757
1.868905
3.124798
3.132857
2.821023
2.964593
1.847269
4.631368
4.596254
2.800939
3.128846
3.029383
1.766489
2.937333
4.457949
4.607447
4.555981
4.471939
3.152956
3.086097
2.972965
2.801875
4.727186
1.950217
1.965544
1.673163
1.646308
3.164390
2.883700
3.158717
3.261567
1.737822
1.888415
4.708209
2.016604
2.408258
4.610542
4.622644
4.584187
4.544878
3.621171
1.889868
4.807437
2.181495
1.829699
4.630664
1.688657
4.555550
1.722828
1.658729
3.729149
4.512716
2.331250
5.052603
4.872952
3.506843
3.535208
2.814728
5.063485
4.604019
4.740060
1.975000
5.035791
1.830192
2.657030
1.650484
1.754887
4.742624
4.922692
4.936841
1.854016
4.844234
1.914479
3.566293
2.770984
2.707928
4.943170
4.817329
3.595207
3.935326
2.451481
1.686803
3.753071
3.561803
3.754459
4.882927
4.851685
4.925601
4.853537
2.970068
2.247406
3.595209
1.620186
2.237036
2.804516
3.857840
2.278329
2.928096
1.864212
2.152444
1.823324
1.745066
3.646586
4.862957
1.715481
3.906064
3.805289
2.249261
3.615545
4.813159
2.253805
3.973700
3.753183
2.537655
2.553218
3.173511
2.321895
1.679318
3.581862
1.877177
1.878896
1.787671
3.318753
3.644891
3.314786
4.926098
4.333430
3.826266
3.710501
4.967463
4.915081
1.902907
2.358049
4.840228
4.038795
3.331918
5.113868
1.839527
5.171222
1.787239
5.075544
5.126592
3.039570
3.101057
4.921622
5.186334
4.989768
1.918993
1.759720
1.845448
2.222202
4.062010
4.795965
2.371687
4.944164
5.234492
4.132274
4.324487
4.234685
4.881137
4.841229
5.009087
4.840111
1.760325
2.808837
3.089810
4.296022
4.984162
2.942028
4.369079
4.447312
3.161128
1.812622
1.902854
4.257350
4.193409
4.957250
4.201592
5.057687
2.707355
4.261464
5.059094
5.039631
2.613709
5.254255
5.125513
5.152687
4.925907
2.597137
4.979546
2.534156
3.601405
5.110363
4.929663
4.984644
3.189883
1.755783
2.186412
1.869305
4.523159
2.314231
4.571475
1.757250
4.263011
1.962721
4.213048
3.353281
1.872731
3.151512
3.131832
1.733845
1.935406
2.664330
1.602572
1.729542
4.049041
2.696488
4.162698
4.979499
4.983758
4.966508
4.953949
3.365470
4.339340
4.337953
4.370048
4.603627
2.460013
3.225385
2.591243
1.975084
4.769313
1.853183
1.848610
3.859690
1.884287
3.633866
2.480117
5.053787
1.773724
2.979417
3.097329
4.748837
5.198239
3.286553
1.798793
1.856132
1.740964
5.144759
4.820805
3.591005
2.751867
1.662580
4.413597
1.740082
2.599342
2.308743
1.701109
1.810498
1.650434
2.282076
1.824045
4.189105
4.656904
3.148135
4.219719
3.942188
2.609153
4.249017
4.053159
4.103750
2.130767
3.200699
3.360784
4.066277
3.313653
2.297991
3.193231
4.244490
4.125588
1.723025
1.710613
3.301441
4.516934
5.227113
2.669852
3.297394
5.136058
2.882912
2.570589
1.682370
5.053573
2.254377
4.649618
1.801681
4.184836
3.280926
3.815174
3.193582
2.081514
3.173027
1.732679
4.021953
4.140401
4.526273
4.482924
1.931904
1.728153
5.157888
2.724632
1.905284
1.700506
2.783288
3.606220
3.644063
1.702813
4.286048
3.879489
4.398759
5.253102
2.618310
5.013885
4.605055
3.735513
3.582145
2.644309
4.552540
4.567210
5.122102
2.779080
3.751672
4.171163
1.740780
3.992987
4.048617
1.977766
3.256977
2.624333
1.796736
1.749806
5.070250
1.730574
1.738331
5.070069
1.992959
1.733112
0.876722
4.182987
4.313390
2.909590
3.086485
2.501475
2.616275
1.385019
1.415668
1.941217
2.958760
0.859196
0.833991
3.658283
2.405051
2.954929
2.353257
1.402249
2.001743
1.894780
3.078975
2.358313
1.077627
1.011692
1.987894
3.551493
4.107315
3.733502
2.758315
3.738113
4.445822
4.508082
3.709340
4.496283
4.353892
4.596838
3.930843
3.811563
4.510770
3.841835
2.558986
3.960373
4.010830
3.666936
3.800704
3.206869
4.274363
4.451461
3.557199
4.398250
4.583945
4.404356
3.633535
2.554250
3.885765
4.404612
3.755516
2.406725
1.507005
2.314210
2.186594
1.618863
1.509029
0.846563
1.694985
1.668745
2.286419
1.369811
1.560953
2.700155
0.883136
2.589175
1.850768
1.928769
2.615723
1.649789
2.329814
2.170538
2.430294
2.647804
0.941310
3.358692
4.149560
3.858492
3.283306
3.264648
3.779265
3.242579
4.080435
2.695687
3.839199
4.233704
1.058339
0.977459
1.407244
1.033021
3.125242
2.518705
1.475120
0.954019
1.842486
2.967448
2.200201
2.861292
2.884881
0.401262
0.433595
1.343268
0.427032
1.220796
2.150786
2.090056
1.362873
0.683677
0.552534
2.070796
1.322220
1.461278
0.462834
3.756732
3.499383
2.284348
2.238483
3.130882
3.280050
3.748677
3.656564
2.930158
3.423679
3.374439
3.555463
2.889498
4.168713
3.584762
3.522541
4.058037
2.114246
3.874397
4.070095
4.214493
4.363764
2.226568
3.876078
3.577822
3.400493
2.746525
3.794597
1.484424
1.696702
0.879793
2.921268
1.474971
1.775843
1.566730
0.933297
1.949256
2.640026
2.441850
1.448413
1.382922
1.768102
1.475209
2.748879
2.362546
0.469813
1.527743
2.256750
1.160261
0.663518
1.734349
2.076879
2.646448
2.450193
1.797543
1.380661
2.185128
2.998437
0.803644
3.327434
2.003127
3.084356
2.084134
2.644498
1.203244
3.982250
1.371468
0.763843
1.632315
1.274556
2.037457
2.744645
0.643759
3.591148
2.933608
3.465064
3.996620
3.719428
4.282355
4.523574
3.781805
4.336691
4.126744
4.291306
4.161541
0.830818
4.090070
4.122514
2.484394
2.561904
2.210175
1.513756
1.609112
1.386082
2.258565
1.348777
0.860686
0.841685
0.862016
2.283022
0.770347
1.422755
2.645406
1.846030
1.540658
1.925810
1.841505
2.553319
1.992155
2.357525
2.964602
2.791594
1.580657
0.906395
1.618973
1.751516
1.374983
2.210611
1.525066
3.475715
2.710942
3.210995
2.857304
3.498778
3.470723
3.427744
3.012083
1.421178
2.046390
1.873044
3.014158
1.600571
1.052068
3.586122
2.193394
2.105010
2.144519
2.573998
1.178612
1.147117
2.885164
1.115570
1.448810
0.407327
0.676489
0.373086
1.723183
2.464683
1.502140
3.223779
3.014493
1.590316
4.069444
4.334871
4.240658
4.292511
3.684561
4.229380
3.625595
3.751846
4.250427
3.772164
3.948358
4.091495
3.689605
3.705325
4.069374
4.323354
4.174993
0.461130
0.816014
1.350011
3.730231
1.930902
1.532089
1.679231
1.353146
1.034833
2.963098
3.420955
2.852151
3.805893
3.477955
3.075679
3.895948
3.535330
2.958194
3.781139
3.738604
0.844480
0.849007
2.135600
3.309531
1.435122
2.601154
1.379666
1.044628
2.443050
0.860527
0.542070
0.343440
0.978664
0.583968
0.906482
0.970162
1.067984
1.193294
2.778116
1.807741
2.001599
3.204242
4.119509
2.386068
1.322722
0.431219
1.573658
0.763846
2.134873
1.229282
4.005491
2.465751
3.673926
1.757957
1.660820
2.881327
2.711575
2.896429
2.211695
3.125442
3.218209
1.568887
1.471345
3.423590
3.014664
2.549701
1.958944
2.220891
3.627504
3.505025
1.793726
1.721662
1.993719
1.745068
1.780392
3.765066
2.400398
2.943118
3.480630
1.730922
1.922566
1.591918
2.143803
2.063547
1.888338
2.397959
3.024718
2.370841
3.144878
2.745542
2.172088
1.761218
2.016151
2.433754
2.770298
1.893356
2.184348
1.783246
1.993155
3.221264
2.347380
2.685286
3.669677
2.949715
1.900821
1.790619
1.917395
1.850473
1.524410
2.686903
2.024901
2.512478
2.872299
3.676330
2.753202
2.235741
1.800330
1.824009
1.700923
1.735982
1.938578
1.661204
1.848272
1.664338
1.703854
1.786993
1.634918
2.040311
2.866111
2.540016
1.971461
2.304850
3.259648
1.811448
1.798890
2.009499
2.132129
3.777532
3.274180
2.842401
2.825934
2.091699
2.015513
1.782216
1.738336
2.146211
2.142609
3.089114
3.016557
2.542821
3.235931
2.732509
2.414958
2.304120
2.847994
4.227477
2.400932
1.899005
2.973257
3.420913
2.640123
2.110913
1.706041
1.878634
1.448240
3.636045
2.914494
3.556987
2.386366
1.912158
2.386856
1.795370
2.194031
2.050337
2.937987
1.830454
1.504495
3.560352
1.650476
2.777303
2.161560
2.754599
2.852294
1.995318
2.382358
2.166566
1.661152
1.889330
2.034245
1.899132
1.731545
3.532021
2.353209
2.000576
2.793660
2.660099
3.648790
2.369479
1.829155
1.810506
2.165870
1.917020
1.522411
1.785293
1.907265
2.275396
2.760449
1.764287
2.306340
1.986567
2.654862
3.065814
3.585051
3.753440
3.328953
3.764591
3.011704
2.405716
3.172797
2.205693
3.666957
3.068154
3.483648
2.780739
2.517721
2.611729
3.675476
2.671063
2.843575
2.743427
3.381809
2.523041
2.998619
3.027760
2.191216
1.715108
1.680829
1.757385
2.770536
1.707948
2.593396
2.016937
1.535641
1.798999
2.114721
2.592408
1.591373
1.716544
1.675345
1.841547
1.760434
2.095856
2.152344
2.421800
1.644774
2.805645
3.180230
2.479736
2.619295
3.018664
3.620605
2.278927
2.065831
1.918227
2.317880
1.537052
1.894711
1.694901
2.328544
2.422834
2.424132
1.902324
1.948684
3.189171
3.983288
3.377288
2.863253
2.417531
2.914460
1.920334
3.468406
2.926302
3.665055
3.731796
1.835439
2.001033
3.059281
3.372500
3.210952
3.840159
3.935651
2.972906
3.052907
2.411703
2.233366
2.558634
1.935345
1.795652
2.223913
2.594369
2.587279
2.311096
3.596531
4.067170
3.604354
2.604097
3.070580
2.545314
2.940794
1.966012
2.095338
2.059906
2.965953
1.745452
2.313954
3.790641
1.832366
2.129473
2.712849
2.610988
3.427827
1.806297
1.440498
2.757936
1.668814
1.562797
3.723835
3.817001
2.295855
1.763490
2.617336
2.545527
2.046071
2.324263
2.217691
1.510238
3.450548
2.474173
1.725543
2.905303
2.939960
3.570565
1.701789
1.396677
2.191614
2.362497
1.872008
1.930178
3.077097
2.525257
3.993060
3.674473
2.277023
2.336339
1.890008
2.567742
2.950045
3.432858
2.463532
2.391748
1.733351
1.746823
2.541321
1.478396
2.733443
2.898801
3.125303
2.347714
2.917704
2.391172
1.809579
3.318289
3.135568
1.651434
1.575550
1.456184
1.749637
2.310648
2.510328
2.730094
1.674988
2.807205
2.327008
1.857740
1.459783
2.694158
1.939310
1.731361
1.697520
2.592362
3.117734
1.667614
2.181509
1.685245
3.200137
2.691446
3.061953
3.233010
2.504345
3.823718
2.899979
2.405133
2.930371
1.737107
1.533342
1.873590
2.124961
2.525636
1.953637
3.064654
1.684088
1.545167
1.585351
2.186876
1.697375
3.510753
3.039149
2.045601
1.908532
3.670966
3.142810
3.091429
1.428150
3.501387
3.090063
1.655245
1.885891
3.572909
2.990709
1.514388
1.685539
3.592372
2.195327
1.693445
1.860070
1.803003
2.031680
2.974847
3.162708
3.084301
3.177723
2.792327
2.428736
2.901592
3.295092
1.764989
1.831878
2.665114
2.307994
2.744342
1.982909
1.568476
2.112251
1.441477
1.528846
1.638946
1.443839
1.722052
1.857651
3.244700
3.307170
2.031351
2.221002
1.723401
4.362933
4.264805
4.274472
3.916506
4.637586
4.227368
3.996108
3.989441
3.892070
4.235258
2.624150
1.944442
2.355532
3.060681
1.577522
3.676351
2.570255
1.888012
2.372974
2.843152
1.480344
3.319991
3.850658
4.018323
4.500730
4.284056
4.088774
3.669632
4.263851
3.673079
3.545572
4.072942
3.189643
3.948520
4.056773
3.660211
3.798882
3.111160
2.960927
4.240061
4.469442
3.991543
3.466140
3.617445
3.172647
3.974969
2.378967
2.542622
2.083101
1.709745
1.161621
1.563259
2.785729
3.237076
2.213843
2.696770
3.978845
3.788129
3.573497
3.757126
1.908432
3.492715
3.311835
1.916971
1.764416
1.925028
2.613001
1.192862
1.027012
1.358343
1.839998
1.600892
2.519396
1.671713
2.053113
1.397499
1.766659
1.399895
1.237617
1.048253
1.369532
2.429286
1.139388
1.455084
1.062303
1.862364
1.057425
1.978209
2.059184
0.917325
1.404129
1.559840
1.150902
