# vtk DataFile Version 2.0
Unstructured Grid Example
ASCII
DATASET UNSTRUCTURED_GRID
POINTS 1221 float
-0.001616 -0.001825 -0.000523 
0.998130 0.001676 0.000331 
1.001686 1.001802 -0.000185 
0.001965 0.998241 -0.000225 
-0.001852 -0.001889 0.049440 
0.998292 0.002059 0.050364 
1.001869 1.001798 0.049778 
0.001678 0.998031 0.049809 
-0.001830 0.048222 0.049533 
-0.001295 0.098394 0.049679 
-0.000196 0.148362 0.049902 
0.001334 0.197819 0.050068 
0.002724 0.246907 0.050175 
0.003681 0.295452 0.050292 
0.003912 0.343846 0.050363 
0.003293 0.392353 0.050415 
0.001964 0.441207 0.050535 
0.000122 0.490843 0.050644 
-0.001710 0.541286 0.050623 
-0.003171 0.592346 0.050494 
-0.003875 0.644039 0.050158 
-0.003719 0.695636 0.049844 
-0.002792 0.746951 0.049618 
-0.001398 0.797949 0.049441 
0.000000 0.848333 0.049292 
0.001083 0.898319 0.049433 
0.001593 0.948160 0.049608 
-0.001613 0.048280 -0.000445 
-0.001128 0.098513 -0.000292 
-0.000089 0.148459 -0.000199 
0.001360 0.197883 -0.000135 
0.002718 0.246841 -0.000193 
0.003639 0.295570 -0.000215 
0.003870 0.343889 -0.000116 
0.003144 0.392448 0.000051 
0.001729 0.441354 0.000360 
-0.000105 0.490944 0.000614 
-0.001990 0.541275 0.000804 
-0.003406 0.592201 0.000853 
-0.004028 0.643670 0.000681 
-0.003734 0.695393 0.000295 
-0.002707 0.746785 -0.000036 
-0.001333 0.797762 -0.000362 
0.000263 0.848445 -0.000588 
0.001402 0.898575 -0.000582 
0.001872 0.948360 -0.000409 
-0.001714 -0.001831 0.024460 
0.001791 0.998170 0.024796 
0.048252 -0.001813 0.049704 
0.098471 -0.001291 0.049944 
0.148430 -0.000221 0.050095 
0.197874 0.001210 0.050196 
0.246903 0.002625 0.050258 
0.295614 0.003576 0.050208 
0.343867 0.003720 0.049979 
0.392471 0.003074 0.049735 
0.441374 0.001679 0.049438 
0.490931 -0.000144 0.049221 
0.541294 -0.001970 0.049132 
0.592198 -0.003348 0.049251 
0.643780 -0.003885 0.049553 
0.695351 -0.003668 0.049986 
0.746785 -0.002588 0.050392 
0.797936 -0.001153 0.050645 
0.848524 0.000361 0.050644 
0.898566 0.001398 0.050573 
0.948391 0.002003 0.050484 
0.048492 -0.001783 -0.000264 
0.098616 -0.001277 -0.000037 
0.148427 -0.000150 -0.000020 
0.197829 0.001276 -0.000040 
0.246822 0.002663 -0.000101 
0.295492 0.003627 -0.000255 
0.343775 0.003876 -0.000457 
0.392290 0.003235 -0.000624 
0.441237 0.001887 -0.000780 
0.490889 0.000102 -0.000784 
0.541320 -0.001722 -0.000683 
0.592368 -0.003088 -0.000429 
0.643866 -0.003849 0.000035 
0.695692 -0.003687 0.000434 
0.746995 -0.002804 0.000805 
0.797874 -0.001392 0.000838 
0.848350 0.000065 0.000754 
0.898432 0.001141 0.000571 
0.948256 0.001576 0.000461 
0.998236 0.001842 0.025342 
0.998305 0.051942 0.049938 
0.998861 0.101704 0.049500 
0.999998 0.151657 0.049181 
1.001403 0.202061 0.049200 
1.002824 0.252990 0.049358 
1.003717 0.304275 0.049703 
1.003918 0.355938 0.050156 
1.003173 0.407543 0.050683 
1.001729 0.458728 0.050923 
0.999912 0.509201 0.050901 
0.998062 0.558831 0.050699 
0.996669 0.607846 0.050411 
0.996097 0.656118 0.050107 
0.996362 0.704511 0.049958 
0.997302 0.753145 0.049885 
0.998640 0.802153 0.049869 
1.000156 0.851607 0.049843 
1.001235 0.901508 0.049802 
1.001748 0.951689 0.049806 
0.998187 0.051556 -0.000087 
0.998614 0.101350 -0.000535 
0.999783 0.151582 -0.000703 
1.001268 0.202185 -0.000575 
1.002701 0.253218 -0.000282 
1.003739 0.304598 0.000118 
1.004023 0.356430 0.000682 
1.003387 0.407790 0.001054 
1.001997 0.458733 0.001133 
1.000165 0.509020 0.000891 
0.998317 0.558640 0.000539 
0.996839 0.607604 -0.000011 
0.996118 0.656155 -0.000374 
0.996332 0.704464 -0.000467 
0.997273 0.753140 -0.000452 
0.998648 0.802151 -0.000341 
1.000076 0.851579 -0.000273 
1.001103 0.901539 -0.000192 
1.001596 0.951692 -0.000181 
1.001746 1.001772 0.024797 
0.951744 1.001789 0.049984 
0.901542 1.001237 0.050191 
0.851622 1.000112 0.050398 
0.802145 0.998649 0.050466 
0.753092 0.997340 0.050407 
0.704479 0.996439 0.050244 
0.656128 0.996261 0.049983 
0.607526 0.996913 0.049677 
0.558625 0.998290 0.049374 
0.509073 1.000103 0.049147 
0.458721 1.001914 0.049032 
0.407816 1.003307 0.049096 
0.356243 1.003887 0.049399 
0.304671 1.003617 0.049812 
0.253257 1.002619 0.050222 
0.202102 1.001163 0.050473 
0.151436 0.999704 0.050477 
0.101453 0.998677 0.050291 
0.051545 0.998118 0.050090 
0.951582 1.001760 -0.000001 
0.901366 1.001347 0.000231 
0.851575 1.000142 0.000218 
0.802130 0.998744 0.000201 
0.753175 0.997329 0.000037 
0.704529 0.996376 -0.000170 
0.656244 0.996133 -0.000460 
0.607710 0.996741 -0.000663 
0.558781 0.998094 -0.000864 
0.509132 0.999897 -0.000863 
0.458702 1.001761 -0.000781 
0.407598 1.003108 -0.000527 
0.356035 1.003745 -0.000140 
0.304346 1.003592 0.000264 
0.253026 1.002664 0.000564 
0.202131 1.001366 0.000746 
0.151686 0.999842 0.000575 
0.101587 0.998753 0.000295 
0.051849 0.998300 0.000073 
0.026114 0.998170 0.018819 
0.021518 0.998101 0.035330 
0.977404 1.001803 0.018780 
0.981986 1.001801 0.035284 
0.490731 1.000702 0.024134 
0.777607 0.997992 0.025290 
0.680401 0.996155 0.024927 
0.534721 0.999056 0.024175 
0.728795 0.996730 0.025152 
0.632013 0.996414 0.024643 
0.076636 0.998354 0.025221 
0.227599 1.002025 0.025538 
0.583360 0.997447 0.024366 
0.176727 1.000519 0.025603 
0.126520 0.999216 0.025395 
0.876469 1.000769 0.025287 
0.826783 0.999418 0.025336 
0.382058 1.003633 0.024448 
0.919917 1.001527 0.025132 
0.278776 1.003258 0.025244 
0.330323 1.003907 0.024822 
0.433265 1.002580 0.024174 
0.499993 0.499996 0.050056 
0.295399 0.298056 0.050213 
0.704584 0.701973 0.050149 
0.712125 0.287695 0.049866 
0.287875 0.712293 0.049970 
0.501135 0.781447 0.050309 
0.784502 0.497814 0.049674 
0.499917 0.223229 0.050258 
0.224170 0.503330 0.049490 
0.168419 0.170753 0.050267 
0.831192 0.169608 0.049786 
0.830196 0.830802 0.050236 
0.168785 0.830386 0.050009 
0.560625 0.638619 0.050312 
0.439398 0.361401 0.050211 
0.644419 0.434514 0.049740 
0.351273 0.570164 0.049764 
0.641846 0.842809 0.050313 
0.358736 0.157713 0.050298 
0.155417 0.358483 0.049931 
0.850794 0.362148 0.049871 
0.842222 0.643271 0.049815 
0.639474 0.149496 0.049965 
0.360568 0.850483 0.049882 
0.149838 0.632823 0.049768 
0.675860 0.578400 0.049864 
0.563759 0.328951 0.050108 
0.436278 0.671080 0.050247 
0.324133 0.423455 0.049847 
0.537999 0.880741 0.049855 
0.460941 0.119133 0.049821 
0.883580 0.469923 0.050259 
0.121383 0.461494 0.049918 
0.746955 0.893474 0.050403 
0.111163 0.255699 0.050175 
0.255789 0.100959 0.050340 
0.899784 0.258359 0.049585 
0.886289 0.739605 0.049941 
0.734442 0.107041 0.050091 
0.265564 0.892942 0.050130 
0.106882 0.735949 0.049806 
0.599131 0.736946 0.050444 
0.400874 0.263056 0.050387 
0.748173 0.402919 0.049630 
0.248680 0.599454 0.049537 
0.597767 0.518255 0.049918 
0.398771 0.477755 0.049933 
0.613517 0.250653 0.050055 
0.386353 0.749161 0.050175 
0.096104 0.093353 0.050085 
0.900984 0.096317 0.049851 
0.906594 0.903878 0.050186 
0.099976 0.903936 0.049930 
0.441908 0.905608 0.049560 
0.900516 0.568257 0.050103 
0.558055 0.094314 0.049718 
0.094533 0.558157 0.050031 
0.259342 0.205172 0.050351 
0.741141 0.794424 0.050325 
0.800057 0.257481 0.049743 
0.206311 0.746410 0.049974 
0.199550 0.279319 0.050143 
0.794795 0.715572 0.049991 
0.715278 0.203160 0.049960 
0.284766 0.796818 0.050061 
0.504509 0.411878 0.050109 
0.494787 0.588436 0.050165 
0.244452 0.366908 0.049884 
0.755548 0.632898 0.049836 
0.689571 0.497896 0.049618 
0.649314 0.342063 0.049885 
0.308550 0.507780 0.049585 
0.350689 0.657904 0.049972 
0.081223 0.181112 0.050153 
0.174907 0.084993 0.050260 
0.819770 0.918255 0.050396 
0.920153 0.184595 0.049407 
0.916391 0.823146 0.050015 
0.818863 0.082097 0.050201 
0.079828 0.815407 0.049631 
0.187465 0.915140 0.050273 
0.648633 0.652076 0.050150 
0.351358 0.347957 0.050133 
0.511308 0.696064 0.050381 
0.488699 0.303954 0.050306 
0.615340 0.913555 0.049909 
0.384397 0.086678 0.049984 
0.082139 0.389278 0.050111 
0.920868 0.395002 0.050295 
0.920648 0.665154 0.049896 
0.655730 0.070695 0.049793 
0.344535 0.929328 0.049703 
0.070098 0.656785 0.050000 
0.432565 0.824302 0.049972 
0.818549 0.567150 0.049732 
0.567213 0.175413 0.050031 
0.177248 0.565684 0.049589 
0.192890 0.430798 0.049682 
0.574900 0.815762 0.050240 
0.425363 0.181528 0.050288 
0.824179 0.428219 0.049870 
0.566804 0.455636 0.049966 
0.434015 0.544036 0.050015 
0.778049 0.330167 0.049745 
0.221682 0.669300 0.049770 
0.666787 0.777393 0.050377 
0.334052 0.222175 0.050409 
0.681787 0.926193 0.050230 
0.072778 0.313501 0.050143 
0.318213 0.073829 0.050192 
0.934630 0.327054 0.049891 
0.743717 0.557905 0.049706 
0.445990 0.738209 0.050266 
0.553827 0.261534 0.050180 
0.611574 0.591878 0.050074 
0.388530 0.408859 0.049988 
0.260470 0.445123 0.049638 
0.588257 0.390463 0.049970 
0.411750 0.609546 0.050052 
0.452655 0.429583 0.050074 
0.546541 0.570697 0.050130 
0.491417 0.935393 0.049372 
0.933942 0.521887 0.050461 
0.508589 0.064514 0.049507 
0.064796 0.508623 0.050225 
0.502425 0.838606 0.050081 
0.837551 0.509479 0.049872 
0.497645 0.152144 0.050021 
0.153575 0.498644 0.049746 
0.698063 0.838949 0.050392 
0.302467 0.160728 0.050368 
0.846312 0.304161 0.049702 
0.145431 0.700493 0.049863 
0.161897 0.230558 0.050220 
0.839812 0.773830 0.050086 
0.772525 0.155925 0.049959 
0.227467 0.844064 0.050126 
0.671456 0.234425 0.049975 
0.328550 0.765589 0.050098 
0.700326 0.352785 0.049726 
0.299657 0.647219 0.049780 
0.935855 0.612574 0.050071 
0.600468 0.056611 0.049610 
0.399907 0.943393 0.049389 
0.056700 0.600651 0.050239 
0.702410 0.430532 0.049611 
0.301928 0.561379 0.049559 
0.052586 0.052257 0.049777 
0.943851 0.056124 0.050099 
0.947679 0.947389 0.049976 
0.056169 0.944004 0.049933 
0.775795 0.943666 0.050432 
0.058190 0.229159 0.050179 
0.223794 0.056522 0.050304 
0.942747 0.774693 0.049912 
0.768505 0.052515 0.050328 
0.232143 0.947231 0.050277 
0.948966 0.230139 0.049400 
0.052473 0.768612 0.049623 
0.219446 0.162060 0.050338 
0.776155 0.845384 0.050353 
0.849611 0.225578 0.049661 
0.153458 0.773925 0.049895 
0.560127 0.945834 0.049569 
[...]
POINT_DATA 1221
SCALARS u float 1
LOOKUP_TABLE default
0.030609
0.031093
0.030376
0.032486
0.033194
0.033144
0.031953
0.031851
0.031848
0.025626
0.020285
0.031399
0.050638
0.071917
0.089629
0.102343
0.110802
0.112701
0.109287
0.101893
0.087305
0.070414
0.050971
0.031231
0.022228
0.025516
0.030263
0.029462
0.023190
0.019108
0.030937
0.051214
0.070430
0.088807
0.100430
0.108332
0.111441
0.110300
0.104996
0.092493
0.072886
0.051601
0.032282
0.020659
0.025563
0.030967
0.031496
0.031540
0.031129
0.024577
0.019496
0.030134
0.049946
0.069521
0.088056
0.099891
0.108103
0.111754
0.110092
0.104625
0.090191
0.072699
0.050896
0.030085
0.020262
0.025570
0.032096
0.028849
0.023127
0.019401
0.030919
0.050909
0.071096
0.090203
0.102929
0.110466
0.112265
0.108962
0.101207
0.088905
0.069816
0.051415
0.032854
0.022285
0.024810
0.029408
0.031588
0.031656
0.025901
0.022689
0.032145
0.051102
0.069638
0.087354
0.100810
0.109818
0.113505
0.111320
0.104769
0.089094
0.071143
0.050888
0.031305
0.019917
0.024054
0.029935
0.029345
0.024645
0.021415
0.031808
0.051689
0.072771
0.093484
0.105080
0.110857
0.111292
0.108260
0.101092
0.089451
0.071162
0.051354
0.031464
0.019688
0.023370
0.028643
0.030645
0.030672
0.024380
0.020551
0.031643
0.050325
0.070307
0.088124
0.099942
0.108217
0.111879
0.110253
0.104781
0.090586
0.072561
0.051377
0.030055
0.018925
0.024388
0.029906
0.029049
0.023722
0.019598
0.030453
0.050937
0.071238
0.090339
0.103082
0.110818
0.112610
0.109419
0.100987
0.087209
0.069292
0.049975
0.032395
0.021951
0.025042
0.030851
0.031599
0.031527
0.030529
0.031113
0.112121
0.040555
0.081392
0.111318
0.061524
0.096793
0.028622
0.040982
0.106623
0.023341
0.021553
0.020655
0.023397
0.097684
0.027051
0.061300
0.081090
0.106779
0.000692
0.053771
0.053710
0.053063
0.052936
0.004725
0.004675
0.006030
0.009591
0.004248
0.003705
0.004013
0.002860
0.044655
0.044927
0.045207
0.046356
0.054978
0.054784
0.056580
0.055060
0.055915
0.056396
0.056420
0.054651
0.048069
0.044226
0.044127
0.048119
0.054314
0.054932
0.054907
0.053729
0.050303
0.050487
0.052286
0.051472
0.051834
0.051735
0.051632
0.052181
0.044502
0.044460
0.041905
0.042319
0.033561
0.035088
0.045867
0.045924
0.025500
0.025614
0.024978
0.025219
0.069700
0.070096
0.070406
0.068012
0.036342
0.036158
0.036130
0.035469
0.041433
0.042213
0.043137
0.042774
0.029918
0.030292
0.048113
0.048004
0.035006
0.057288
0.035767
0.057279
0.029969
0.027851
0.029353
0.030382
0.028336
0.027551
0.029904
0.028910
0.057672
0.057814
0.034256
0.034265
0.077167
0.076971
0.080153
0.077565
0.077943
0.079202
0.079270
0.078243
0.035146
0.033941
0.034981
0.032631
0.031815
0.034789
0.035347
0.035023
0.028731
0.028675
0.048181
0.048376
0.047687
0.047617
0.074692
0.074882
0.075355
0.075411
0.032178
0.031923
0.031791
0.048066
0.047671
0.032716
0.045723
0.045722
0.031190
0.031497
0.082290
0.082561
0.082209
0.081274
0.027563
0.027374
0.033107
0.031713
0.051276
0.051468
0.051453
0.052199
0.029496
0.027512
0.027248
0.027128
0.049546
0.049877
0.055499
0.055659
0.087532
0.087655
0.088194
0.085767
0.043351
0.041883
0.032119
0.032613
0.031230
0.030937
0.047371
0.049677
0.047111
0.047921
0.047949
0.048598
0.048511
0.048317
0.024575
0.028237
0.028549
0.028548
0.088644
0.089251
0.088240
0.088151
0.053806
0.053221
0.054201
0.054020
0.026300
0.025737
0.038336
0.038162
0.051770
0.051065
0.050927
0.055950
0.056011
0.055305
0.055015
0.026411
0.025519
0.027707
0.026014
0.025743
0.025192
0.026916
0.025258
0.038481
0.040898
0.026384
0.043758
0.051967
0.052087
0.025499
0.055636
0.055800
0.056162
0.043055
0.043072
0.042592
0.042755
0.049485
0.049451
0.044145
0.044128
0.044222
0.069534
0.070452
0.069634
0.070657
0.015042
0.014020
0.014534
0.013779
0.044047
0.043494
0.041858
0.038885
0.020126
0.019798
0.019466
0.019392
0.055481
0.055279
0.069421
0.068907
0.069468
0.068136
0.044404
0.019465
0.019796
0.052793
0.053003
0.048752
0.048339
0.049420
0.049341
0.022027
0.065103
0.064668
0.065054
0.093699
0.093985
0.093530
0.092175
0.020763
0.019471
0.020002
0.058162
0.058133
0.059060
0.057224
0.070502
0.029766
0.029390
0.018120
0.018502
0.044576
0.067359
0.068143
0.067435
0.067618
0.021172
0.022190
0.021836
0.040759
0.040542
0.027157
0.034792
0.087218
0.087438
0.086670
0.087224
0.047044
0.038121
0.047190
0.018255
0.017907
0.019459
0.018582
0.035660
0.048708
0.048635
0.046833
0.047148
0.030211
0.029593
0.031389
0.030716
0.029453
0.029394
0.030797
0.028790
0.039187
0.039416
0.063190
0.023423
0.038222
0.017423
0.017048
0.051517
0.051521
0.019121
0.037247
0.037043
0.036985
0.022360
0.035647
0.035538
0.022332
0.052230
0.052151
0.053509
0.053153
0.082712
0.081796
0.082679
0.081221
0.031890
0.031329
0.065467
0.065866
0.065701
0.036530
0.037716
0.037730
0.034268
0.016104
0.018167
0.091234
0.094307
0.090612
0.091089
0.043440
0.046839
0.043954
0.041989
0.051863
0.051626
0.051878
0.049969
0.062186
0.037690
0.049989
0.049643
0.034072
0.040195
0.034268
0.034393
0.036780
0.035933
0.036436
0.020223
0.066648
0.066494
0.067138
0.052029
0.052189
0.031838
0.096994
0.095809
0.096067
0.096032
0.049283
0.050603
0.065246
0.066041
0.066109
0.018140
0.029980
0.028847
0.030148
0.028948
0.029635
0.028824
0.029265
0.028750
0.069349
0.048943
0.045770
0.072849
0.056878
0.056746
0.041484
0.041417
0.065171
0.056151
0.056134
0.019352
0.017027
0.017270
0.037452
0.036591
0.073122
0.073465
0.040717
0.040686
0.042709
0.042822
0.032159
0.039476
0.049519
0.049504
0.025799
0.080064
0.080385
0.079957
0.080520
0.046118
0.046268
0.046281
0.099878
0.099096
0.098610
0.099324
0.045963
0.046266
0.037426
0.045706
0.045169
0.018194
0.048300
0.045674
0.038829
0.039817
0.031525
0.031175
0.031087
0.031172
0.049898
0.048327
0.045972
0.040180
0.040161
0.040454
0.041894
0.042157
0.045667
0.032729
0.043243
0.044005
0.044888
0.041211
0.061991
0.061937
0.062750
0.015384
0.089835
0.090713
0.088556
0.091023
0.032553
0.032707
0.031675
0.031693
0.017804
0.017716
0.037175
0.053814
0.053953
0.052985
0.053119
0.038193
0.038260
0.066390
0.075454
0.075750
0.075234
0.022617
0.022255
0.022231
0.022967
0.049053
0.049141
0.027415
0.027486
0.062745
0.047594
0.075472
0.076028
0.075109
0.074619
0.030270
0.030955
0.031161
0.031949
0.111993
0.062139
0.041106
0.023783
0.020690
0.027699
0.041677
0.024969
0.022620
0.027850
0.081897
0.111796
0.107977
0.098643
0.106841
0.097288
0.061730
0.080874
0.031412
0.032150
0.030831
0.031807
0.111833
0.061379
0.022197
0.024609
0.028916
0.041044
0.023174
0.020609
0.040286
0.026841
0.096847
0.111064
0.081602
0.106584
0.097954
0.080941
0.061595
0.106364
0.000939
0.053683
0.053753
0.053059
0.053243
0.004386
0.006122
0.004299
0.010096
0.003038
0.001502
0.001960
0.003424
0.045115
0.045372
0.046229
0.045898
0.056060
0.055801
0.055904
0.056952
0.055247
0.055323
0.054831
0.054991
0.047728
0.047831
0.043481
0.043983
0.055776
0.054563
0.053948
0.052521
0.050457
0.050585
0.051905
0.050796
0.052609
0.052338
0.051900
0.051916
0.044193
0.042854
0.045638
0.045043
0.034500
0.035051
0.046003
0.045632
0.024907
0.025470
0.024895
0.026094
0.068985
0.067242
0.068323
0.069245
0.035712
0.035890
0.035841
0.034827
0.041517
0.042747
0.042771
0.042790
0.029758
0.029874
0.048190
0.048476
0.035141
0.035515
0.057196
0.057156
0.030066
0.026989
0.028673
0.030231
0.029490
0.030173
0.029765
0.030907
0.057780
0.033389
0.057531
0.033840
0.079213
0.078655
0.078801
0.079892
0.078437
0.077788
0.077334
0.079715
0.034035
0.033181
0.034500
0.035681
0.032194
0.035727
0.035725
0.036196
0.028282
0.028608
0.047199
0.048325
0.048968
0.047603
0.076748
0.075312
0.075751
0.078109
0.032488
0.031654
0.031499
0.047696
0.048014
0.032153
0.045430
0.045626
0.031517
0.030923
0.082207
0.080681
0.082112
0.081506
0.028697
0.025691
0.028133
0.032021
0.051333
0.051459
0.051956
0.052135
0.029410
0.028529
0.028114
0.028084
0.049658
0.049170
0.054474
0.054632
0.084610
0.085357
0.085059
0.087292
0.027436
0.028921
0.030002
0.030399
0.030005
0.031729
0.047416
0.049998
0.047301
0.048855
0.048702
0.047907
0.048380
0.048988
0.024036
0.027513
0.027859
0.027512
0.090222
0.090191
0.090045
0.086733
0.054129
0.053980
0.053316
0.053052
0.055154
0.027096
0.037682
0.038023
0.050434
0.026675
0.055136
0.056115
0.056136
0.051242
0.043559
0.025306
0.024778
0.025676
0.025327
0.026232
0.025449
0.026038
0.026998
0.040375
0.040921
0.044408
0.051949
0.051771
0.050352
0.050548
0.057730
0.057260
0.057797
0.042906
0.043343
0.042526
0.042402
0.049544
0.049858
0.044436
0.044851
0.044930
0.070394
0.069004
0.071183
0.068546
0.013372
0.015348
0.014566
0.015852
0.042868
0.043835
0.038491
0.038692
0.019960
0.019756
0.019532
0.019961
0.055428
0.055542
0.068505
0.068167
0.068441
0.069213
0.045169
0.019278
0.020015
0.048930
0.049038
0.048520
0.048044
0.022105
0.066426
0.066337
0.067446
0.092830
0.090944
0.092326
0.093176
0.021948
0.022255
0.022128
0.058064
0.056102
0.057264
0.057475
0.070945
0.029061
0.029568
0.018052
0.018368
0.044658
0.067805
0.068451
0.067750
0.069922
0.029685
0.020300
0.020763
0.020775
0.040520
0.040107
0.033363
0.041229
0.041384
0.088589
0.087786
0.088563
0.089975
0.046893
0.037437
0.047346
0.017928
0.017217
0.017411
0.017804
0.034476
0.048469
0.048482
0.047076
0.047218
0.030467
0.029286
0.031107
0.029045
0.030538
0.031210
0.030523
0.030988
0.063461
0.041929
0.051889
0.032502
0.023297
0.038209
0.024559
0.016935
0.017580
0.051143
0.052735
0.051325
0.052395
0.019053
0.037494
0.036845
0.036625
0.021787
0.035121
0.021806
0.034986
0.052212
0.053147
0.053295
0.080692
0.082427
0.081251
0.084258
0.032275
0.032477
0.064755
0.064152
0.064703
0.036406
0.036842
0.036615
0.036246
0.035866
0.035628
0.093060
0.093140
0.092920
0.094079
0.042801
0.044051
0.042701
0.043547
0.050877
0.050812
0.050818
0.051361
0.062639
0.037847
0.050013
0.050106
0.033892
0.034279
0.037916
0.038491
0.038094
0.019935
0.068583
0.068167
0.069306
0.095756
0.096526
0.096740
0.095060
0.048621
0.048885
0.050781
0.065950
0.064924
0.064445
0.019372
0.027943
0.027665
0.028527
0.028089
0.028622
0.027684
0.029819
0.029521
0.067693
0.039669
0.045731
0.074359
0.056230
0.057305
0.057372
0.019147
0.040816
0.040733
0.066514
0.018442
0.018359
0.019156
0.056057
0.017686
0.074926
0.074719
0.039636
0.051874
0.043290
0.042741
0.031471
0.031760
0.049710
0.049123
0.081249
0.080795
0.081130
0.083426
0.047497
0.048133
0.052206
0.047161
0.097917
0.098922
0.098899
0.099184
0.046159
0.045247
0.038019
0.045389
0.045370
0.044813
0.016947
0.049346
0.039219
0.038556
0.031784
0.031513
0.031009
0.031813
0.056048
0.055779
0.046617
0.040845
0.040767
0.040062
0.041984
0.041913
0.045396
0.045897
0.042745
0.044500
0.044335
0.040271
0.062722
0.062237
0.062464
0.015390
0.088335
0.087407
0.091084
0.087501
0.030256
0.030816
0.030225
0.032258
0.017395
0.017484
0.054026
0.054136
0.053114
0.053404
0.040426
0.040230
0.037987
0.037717
0.064909
0.077475
0.078386
0.076918
0.021824
0.023574
0.022753
0.025159
0.049071
0.048758
0.027079
0.027840
0.063047
0.076534
0.074950
0.076291
0.073528
0.031662
0.031567
0.031161
0.032104
0.112166
0.061546
0.041135
0.024856
0.022146
0.029234
0.040952
0.023655
0.021249
0.027794
0.081913
0.111132
0.096673
0.106960
0.098118
0.107053
0.062068
0.081554
