# vtk DataFile Version 2.0
Unstructured Grid Example
ASCII
DATASET UNSTRUCTURED_GRID
POINTS 1221 float
-0.001174 0.006385 -0.000282 
0.998826 -0.001396 -0.000066 
1.006606 0.998604 -0.000370 
0.006606 1.006385 -0.000585 
-0.001185 0.006400 0.049718 
0.998815 -0.001381 0.049934 
1.006596 0.998619 0.049630 
0.006596 1.006400 0.049415 
-0.000796 0.056400 0.049703 
-0.000407 0.106400 0.049688 
-0.000018 0.156400 0.049673 
0.000371 0.206400 0.049658 
0.000760 0.256400 0.049643 
0.001149 0.306400 0.049628 
0.001538 0.356400 0.049612 
0.001927 0.406400 0.049597 
0.002316 0.456400 0.049582 
0.002705 0.506400 0.049567 
0.003094 0.556400 0.049552 
0.003483 0.606400 0.049537 
0.003872 0.656400 0.049521 
0.004261 0.706400 0.049506 
0.004651 0.756400 0.049491 
0.005040 0.806400 0.049476 
0.005429 0.856400 0.049461 
0.005818 0.906400 0.049446 
0.006207 0.956400 0.049431 
-0.000785 0.056385 -0.000297 
-0.000396 0.106385 -0.000312 
-0.000007 0.156385 -0.000327 
0.000382 0.206385 -0.000342 
0.000771 0.256385 -0.000357 
0.001160 0.306385 -0.000372 
0.001549 0.356385 -0.000388 
0.001938 0.406385 -0.000403 
0.002327 0.456385 -0.000418 
0.002716 0.506385 -0.000433 
0.003105 0.556385 -0.000448 
0.003494 0.606385 -0.000463 
0.003883 0.656385 -0.000479 
0.004272 0.706385 -0.000494 
0.004661 0.756385 -0.000509 
0.005050 0.806385 -0.000524 
0.005439 0.856385 -0.000539 
0.005828 0.906385 -0.000554 
0.006217 0.956385 -0.000569 
-0.001180 0.006392 0.024718 
0.006601 1.006392 0.024415 
0.048815 0.006011 0.049729 
0.098815 0.005622 0.049740 
0.148815 0.005233 0.049751 
0.198815 0.004844 0.049761 
0.248815 0.004454 0.049772 
0.298815 0.004065 0.049783 
0.348815 0.003676 0.049794 
0.398815 0.003287 0.049804 
0.448815 0.002898 0.049815 
0.498815 0.002509 0.049826 
0.548815 0.002120 0.049837 
0.598815 0.001731 0.049847 
0.648815 0.001342 0.049858 
0.698815 0.000953 0.049869 
0.748815 0.000564 0.049880 
0.798815 0.000175 0.049890 
0.848815 -0.000214 0.049901 
0.898815 -0.000603 0.049912 
0.948815 -0.000992 0.049923 
0.048826 0.005996 -0.000271 
0.098826 0.005606 -0.000260 
0.148826 0.005217 -0.000249 
0.198826 0.004828 -0.000239 
0.248826 0.004439 -0.000228 
0.298826 0.004050 -0.000217 
0.348826 0.003661 -0.000206 
0.398826 0.003272 -0.000196 
0.448826 0.002883 -0.000185 
0.498826 0.002494 -0.000174 
0.548826 0.002105 -0.000163 
0.598826 0.001716 -0.000153 
0.648826 0.001327 -0.000142 
0.698826 0.000938 -0.000131 
0.748826 0.000549 -0.000120 
0.798826 0.000160 -0.000110 
0.848826 -0.000229 -0.000099 
0.898826 -0.000618 -0.000088 
0.948826 -0.001007 -0.000077 
0.998820 -0.001389 0.024934 
0.999204 0.048619 0.049918 
0.999593 0.098619 0.049903 
0.999982 0.148619 0.049888 
1.000371 0.198619 0.049873 
1.000760 0.248619 0.049858 
1.001149 0.298619 0.049843 
1.001538 0.348619 0.049827 
1.001927 0.398619 0.049812 
1.002316 0.448619 0.049797 
1.002705 0.498619 0.049782 
1.003094 0.548619 0.049767 
1.003483 0.598619 0.049752 
1.003872 0.648619 0.049737 
1.004261 0.698619 0.049721 
1.004651 0.748619 0.049706 
1.005040 0.798619 0.049691 
1.005429 0.848619 0.049676 
1.005818 0.898619 0.049661 
1.006207 0.948619 0.049646 
0.999215 0.048604 -0.000082 
0.999604 0.098604 -0.000097 
0.999993 0.148604 -0.000112 
1.000382 0.198604 -0.000127 
1.000771 0.248604 -0.000142 
1.001160 0.298604 -0.000157 
1.001549 0.348604 -0.000173 
1.001938 0.398604 -0.000188 
1.002327 0.448604 -0.000203 
1.002716 0.498604 -0.000218 
1.003105 0.548604 -0.000233 
1.003494 0.598604 -0.000248 
1.003883 0.648604 -0.000263 
1.004272 0.698604 -0.000279 
1.004661 0.748604 -0.000294 
1.005050 0.798604 -0.000309 
1.005439 0.848604 -0.000324 
1.005828 0.898604 -0.000339 
1.006217 0.948604 -0.000354 
1.006601 0.998611 0.024630 
0.956596 0.999008 0.049620 
0.906596 0.999397 0.049609 
0.856596 0.999786 0.049598 
0.806596 1.000175 0.049587 
0.756596 1.000564 0.049577 
0.706596 1.000953 0.049566 
0.656596 1.001342 0.049555 
0.606596 1.001731 0.049544 
0.556596 1.002120 0.049534 
0.506596 1.002509 0.049523 
0.456596 1.002898 0.049512 
0.406596 1.003287 0.049501 
0.356596 1.003676 0.049491 
0.306596 1.004065 0.049480 
0.256596 1.004454 0.049469 
0.206596 1.004844 0.049458 
0.156596 1.005233 0.049448 
0.106596 1.005622 0.049437 
0.056596 1.006011 0.049426 
0.956606 0.998993 -0.000380 
0.906606 0.999382 -0.000391 
0.856606 0.999771 -0.000402 
0.806606 1.000160 -0.000413 
0.756606 1.000549 -0.000423 
0.706606 1.000938 -0.000434 
0.656606 1.001327 -0.000445 
0.606606 1.001716 -0.000456 
0.556606 1.002105 -0.000466 
0.506606 1.002494 -0.000477 
0.456606 1.002883 -0.000488 
0.406606 1.003272 -0.000499 
0.356606 1.003661 -0.000509 
0.306606 1.004050 -0.000520 
0.256606 1.004439 -0.000531 
0.206606 1.004828 -0.000542 
0.156606 1.005217 -0.000552 
0.106606 1.005606 -0.000563 
0.056606 1.005996 -0.000574 
0.030908 1.006201 0.018309 
0.026391 1.006241 0.034836 
0.982297 0.998799 0.018514 
0.986807 0.998768 0.035043 
0.488268 1.002644 0.024519 
0.781601 1.000362 0.024582 
0.681601 1.001140 0.024561 
0.532342 1.002301 0.024528 
0.731601 1.000751 0.024571 
0.631601 1.001529 0.024550 
0.081601 1.005809 0.024432 
0.231601 1.004641 0.024464 
0.581683 1.001917 0.024539 
0.181601 1.005030 0.024453 
0.131601 1.005420 0.024442 
0.881601 0.999584 0.024604 
0.831601 0.999973 0.024593 
0.381601 1.003474 0.024496 
0.924934 0.999247 0.024613 
0.281601 1.004252 0.024475 
0.331601 1.003863 0.024485 
0.431601 1.003085 0.024507 
0.502705 0.502509 0.049674 
0.293427 0.299076 0.049692 
0.711967 0.705969 0.049657 
0.710152 0.291637 0.049783 
0.295259 0.713382 0.049566 
0.506257 0.783912 0.049589 
0.787143 0.498300 0.049736 
0.500052 0.225760 0.049758 
0.226985 0.507400 0.049614 
0.168359 0.175758 0.049703 
0.831127 0.169616 0.049846 
0.835599 0.830931 0.049645 
0.174283 0.835403 0.049503 
0.567445 0.642635 0.049646 
0.437966 0.362384 0.049703 
0.644661 0.439009 0.049724 
0.356602 0.570686 0.049623 
0.645223 0.848211 0.049599 
0.360778 0.157343 0.049749 
0.152923 0.365780 0.049642 
0.848382 0.359995 0.049791 
0.850124 0.641104 0.049706 
0.641535 0.155015 0.049810 
0.363876 0.850003 0.049539 
0.157544 0.640063 0.049559 
0.681616 0.582600 0.049688 
0.562071 0.332859 0.049739 
0.443340 0.672160 0.049610 
0.323833 0.424245 0.049660 
0.539440 0.884254 0.049566 
0.464964 0.120656 0.049783 
0.884727 0.465184 0.049767 
0.122345 0.471081 0.049603 
0.750101 0.897186 0.049607 
0.108768 0.263811 0.049663 
0.258208 0.102193 0.049744 
0.897382 0.255113 0.049834 
0.894187 0.736512 0.049686 
0.736708 0.111027 0.049844 
0.268702 0.893991 0.049505 
0.114826 0.744057 0.049518 
0.605564 0.741748 0.049623 
0.399847 0.263270 0.049725 
0.747206 0.405231 0.049756 
0.255142 0.602255 0.049591 
0.601254 0.522660 0.049689 
0.400541 0.478298 0.049660 
0.612560 0.255595 0.049773 
0.392714 0.749235 0.049576 
0.097151 0.100433 0.049711 
0.901954 0.094171 0.049884 
0.911043 0.901758 0.049640 
0.104425 0.911060 0.049465 
0.442684 0.906083 0.049539 
0.906279 0.562531 0.049742 
0.562727 0.098936 0.049810 
0.100114 0.568803 0.049569 
0.259060 0.206697 0.049713 
0.746858 0.797894 0.049636 
0.798030 0.258364 0.049812 
0.213654 0.750229 0.049537 
0.197182 0.283842 0.049676 
0.802579 0.716288 0.049673 
0.715064 0.207455 0.049810 
0.290346 0.797564 0.049539 
0.504095 0.414419 0.049702 
0.500640 0.590871 0.049647 
0.242497 0.369920 0.049659 
0.762906 0.634891 0.049689 
0.692268 0.501757 0.049715 
0.647465 0.346683 0.049753 
0.311515 0.508902 0.049632 
0.357941 0.658295 0.049596 
0.080487 0.189119 0.049680 
0.176519 0.089311 0.049731 
0.823558 0.919196 0.049616 
0.919392 0.181657 0.049861 
0.922412 0.820251 0.049667 
0.820447 0.082803 0.049870 
0.086019 0.823362 0.049488 
0.191246 0.919171 0.049481 
0.655809 0.656782 0.049660 
0.349587 0.348259 0.049689 
0.518265 0.698940 0.049618 
0.487145 0.306078 0.049731 
0.616154 0.918827 0.049572 
0.388967 0.086413 0.049777 
0.080276 0.400412 0.049616 
0.918970 0.389187 0.049798 
0.928917 0.659700 0.049717 
0.659896 0.076298 0.049838 
0.345755 0.928766 0.049511 
0.078411 0.667263 0.049534 
0.436410 0.824830 0.049562 
0.824208 0.565892 0.049724 
0.568783 0.179887 0.049787 
0.182793 0.571918 0.049585 
0.192591 0.436429 0.049629 
0.578883 0.820253 0.049594 
0.426890 0.182065 0.049756 
0.823780 0.426926 0.049766 
0.567846 0.459559 0.049701 
0.438359 0.545115 0.049648 
0.775672 0.331606 0.049785 
0.229488 0.672895 0.049564 
0.672452 0.782386 0.049625 
0.333818 0.222197 0.049724 
0.683393 0.931467 0.049582 
0.069837 0.323760 0.049637 
0.322077 0.073555 0.049767 
0.931663 0.321822 0.049821 
0.748871 0.560188 0.049709 
0.452381 0.739313 0.049592 
0.552832 0.265433 0.049757 
0.617566 0.596470 0.049670 
0.387957 0.409324 0.049678 
0.260859 0.447651 0.049640 
0.587312 0.394743 0.049725 
0.418099 0.610276 0.049624 
0.452771 0.430949 0.049686 
0.551887 0.574325 0.049663 
0.490868 0.937317 0.049539 
0.937513 0.514347 0.049763 
0.514543 0.067701 0.049809 
0.068134 0.521111 0.049576 
0.505523 0.841018 0.049572 
0.840709 0.507168 0.049745 
0.500340 0.154746 0.049780 
0.156264 0.506420 0.049600 
0.702050 0.843849 0.049613 
0.303946 0.160844 0.049736 
0.843522 0.302670 0.049808 
0.153624 0.707386 0.049538 
0.160209 0.236367 0.049683 
0.846790 0.773040 0.049665 
0.773236 0.158425 0.049837 
0.232174 0.846593 0.049512 
0.670642 0.239366 0.049790 
0.334753 0.765632 0.049559 
0.698483 0.356700 0.049761 
0.306927 0.648318 0.049588 
0.943152 0.605607 0.049737 
0.605803 0.062063 0.049831 
0.399915 0.943013 0.049518 
0.063852 0.612553 0.049548 
0.702442 0.434254 0.049738 
0.307049 0.562656 0.049614 
0.053657 0.060085 0.049714 
0.944815 0.053151 0.049905 
0.952063 0.944619 0.049635 
0.060703 0.951891 0.049443 
0.778919 0.946375 0.049598 
0.056272 0.238270 0.049660 
0.226113 0.058890 0.049751 
0.949988 0.770679 0.049688 
0.770875 0.055227 0.049868 
0.235134 0.949502 0.049481 
0.947110 0.226122 0.049853 
0.059781 0.777609 0.049496 
0.220048 0.164850 0.049717 
0.780709 0.847857 0.049628 
0.848047 0.224506 0.049833 
0.160485 0.779906 0.049517 
[...]
POINT_DATA 1221
SCALARS u float 1
LOOKUP_TABLE default
0.068759
0.019320
0.071561
0.097417
0.068937
0.019271
0.071417
0.097447
0.068316
0.067939
0.067810
0.067932
0.068302
0.068918
0.069771
0.070854
0.072156
0.073667
0.075372
0.077259
0.079316
0.081530
0.083887
0.086377
0.088987
0.091709
0.094532
0.068143
0.067772
0.067650
0.067779
0.068157
0.068780
0.069642
0.070734
0.072045
0.073564
0.075277
0.077173
0.079238
0.081459
0.083824
0.086321
0.088939
0.091667
0.094496
0.068848
0.097432
0.064893
0.060858
0.056835
0.052827
0.048837
0.044870
0.040933
0.037036
0.033193
0.029423
0.025761
0.022260
0.019006
0.016153
0.013947
0.012730
0.012787
0.014102
0.016376
0.064714
0.060678
0.056654
0.052644
0.048653
0.044685
0.040746
0.036847
0.033002
0.029230
0.025566
0.022063
0.018812
0.015965
0.013777
0.012595
0.012705
0.014075
0.016392
0.019295
0.016891
0.015271
0.014664
0.015193
0.016750
0.019085
0.021952
0.025169
0.028618
0.032225
0.035943
0.039740
0.043596
0.047496
0.051430
0.055392
0.059375
0.063375
0.067390
0.016974
0.015393
0.014823
0.015377
0.016945
0.019281
0.022143
0.025354
0.028797
0.032399
0.036112
0.039904
0.043756
0.047653
0.051585
0.055544
0.059524
0.063523
0.067536
0.071489
0.070696
0.070209
0.069962
0.069957
0.070194
0.070670
0.071382
0.072321
0.073479
0.074847
0.076412
0.078163
0.080088
0.082174
0.084409
0.086783
0.089284
0.091901
0.094625
0.070832
0.070337
0.070081
0.070066
0.070293
0.070760
0.071461
0.072390
0.073539
0.074896
0.076452
0.078193
0.080109
0.082187
0.084414
0.086780
0.089274
0.091884
0.094601
0.096047
0.096311
0.071125
0.071145
0.075421
0.070097
0.071039
0.074145
0.070450
0.071860
0.093240
0.085580
0.072904
0.088015
0.090571
0.070117
0.069986
0.079117
0.070425
0.083278
0.081120
0.077282
0.039198
0.045323
0.046626
0.014914
0.063557
0.058319
0.028771
0.027348
0.057231
0.053984
0.002280
0.056010
0.077712
0.045660
0.036213
0.027930
0.051710
0.059278
0.038110
0.057987
0.017372
0.040428
0.015036
0.068916
0.068058
0.037424
0.026237
0.053137
0.046903
0.064776
0.029642
0.026380
0.063479
0.061758
0.059584
0.046721
0.010618
0.048574
0.008012
0.076390
0.076122
0.051866
0.036095
0.021880
0.059776
0.035671
0.044048
0.019412
0.060727
0.059951
0.008199
0.062251
0.086198
0.069666
0.034580
0.021927
0.068806
0.046705
0.053655
0.009180
0.070430
0.052723
0.046592
0.010145
0.069035
0.034102
0.044944
0.051131
0.040169
0.030852
0.021694
0.051450
0.056716
0.061261
0.053514
0.063272
0.008465
0.055718
0.005889
0.082212
0.081963
0.043891
0.042275
0.051666
0.030508
0.065514
0.036181
0.064562
0.021167
0.042789
0.014878
0.075196
0.074667
0.064015
0.034177
0.021133
0.063142
0.057030
0.058696
0.032766
0.022746
0.033008
0.045389
0.015426
0.065133
0.053475
0.040749
0.065315
0.063673
0.041782
0.016708
0.034263
0.057298
0.024213
0.040425
0.041706
0.052385
0.027961
0.050460
0.038263
0.041430
0.070333
0.031376
0.026372
0.069280
0.062586
0.029379
0.026627
0.062265
0.057939
0.042791
0.012664
0.071731
0.055069
0.051269
0.004436
0.075210
0.014581
0.064687
0.019846
0.059065
0.038722
0.019410
0.073992
0.073215
0.025382
0.054398
0.063828
0.013003
0.066213
0.091119
0.065615
0.063584
0.049771
0.052088
0.009161
0.081712
0.012026
0.081379
0.049703
0.057505
0.006549
0.075280
0.069313
0.026457
0.032078
0.067563
0.057072
0.044886
0.010644
0.071780
0.054261
0.031178
0.032442
0.047961
0.060068
0.047490
0.037342
0.046529
0.042450
0.048176
0.040884
0.063488
0.057450
0.010471
0.065688
0.009212
0.059888
0.086625
0.087420
0.031727
0.047283
0.059419
0.063850
0.022125
0.056853
0.025832
0.062186
0.033984
0.021877
0.048080
0.048710
0.010895
0.067581
0.049568
0.044429
0.055675
0.036768
0.019022
0.047365
0.012272
0.078617
0.079050
0.055789
0.003893
0.057941
0.081780
0.064664
0.017733
0.035087
0.048388
0.051060
0.053362
0.005201
0.073619
0.017719
0.060889
0.070941
0.038904
0.017250
0.070260
0.038270
0.036438
0.042173
0.023638
0.055293
0.053875
0.042506
0.013497
0.067388
0.057642
0.061845
0.040574
0.015803
0.073476
0.035443
0.023434
0.072528
0.054310
0.002892
0.079017
0.066881
0.030347
0.025869
0.065938
0.061487
0.061019
0.021823
0.035379
0.043062
0.055319
0.066464
0.065396
0.045408
0.015110
0.059729
0.005566
0.079218
0.049514
0.029467
0.055454
0.060310
0.068060
0.066378
0.038941
0.020625
0.049464
0.034038
0.037829
0.058692
0.060851
0.005693
0.082386
0.049814
0.050685
0.043656
0.013017
0.066116
0.064741
0.054035
0.011803
0.066847
0.056514
0.009530
0.085156
0.085293
0.050647
0.033616
0.071515
0.030459
0.050026
0.040430
0.038305
0.025120
0.053450
0.032258
0.053358
0.035766
0.044472
0.055535
0.053836
0.027012
0.027467
0.043360
0.039873
0.040475
0.043547
0.078594
0.044516
0.015829
0.077968
0.055479
0.033231
0.042504
0.072343
0.013488
0.061651
0.008383
0.078882
0.061377
0.029165
0.025939
0.069066
0.068105
0.035101
0.024069
0.065568
0.032951
0.022867
0.064792
0.067216
0.036589
0.018933
0.066456
0.060172
0.059654
0.018695
0.061523
0.032527
0.051426
0.031506
0.046946
0.052231
0.005542
0.079022
0.055481
0.062668
0.037524
0.018779
0.025620
0.052897
0.022794
0.029690
0.029608
0.071541
0.070301
0.015081
0.068016
0.045307
0.011393
0.075040
0.058105
0.064662
0.061127
0.012457
0.066965
0.011798
0.063557
0.089872
0.090054
0.063913
0.056183
0.042933
0.032689
0.018215
0.060250
0.029604
0.048789
0.074841
0.043614
0.045242
0.061576
0.024637
0.060806
0.030296
0.025204
0.066157
0.024313
0.048621
0.033764
0.038765
0.042329
0.045640
0.028618
0.051757
0.039451
0.053475
0.068407
0.066818
0.042302
0.018626
0.058999
0.020196
0.035289
0.032948
0.026743
0.072226
0.073312
0.016163
0.064312
0.036318
0.012688
0.068722
0.052536
0.040222
0.054299
0.041331
0.038735
0.050081
0.007396
0.050664
0.071135
0.022101
0.057655
0.056719
0.048022
0.007628
0.072578
0.023884
0.056120
0.044333
0.027878
0.046407
0.058484
0.009901
0.072338
0.062147
0.043774
0.013255
0.058865
0.041779
0.018097
0.076369
0.077124
0.066263
0.016013
0.068696
0.094164
0.024920
0.058703
0.057331
0.040247
0.045846
0.016388
0.062647
0.051011
0.029097
0.061512
0.064750
0.018519
0.038972
0.056743
0.006366
0.059033
0.084322
0.013309
0.065237
0.038413
0.040836
0.062365
0.038219
0.068113
0.027942
0.029316
0.066776
0.069548
0.069864
0.018076
0.018273
0.033663
0.017935
0.053484
0.057456
0.061447
0.065454
0.015953
0.014875
0.014899
0.015813
0.020562
0.030440
0.026961
0.023619
0.037916
0.041743
0.049537
0.045620
0.017825
0.018079
0.066859
0.067283
0.027969
0.046758
0.013275
0.012536
0.015140
0.013115
0.054738
0.058695
0.050737
0.062246
0.038885
0.031257
0.042804
0.035018
0.020496
0.017421
0.014859
0.023888
0.039186
0.045181
0.046711
0.014902
0.063529
0.058321
0.029030
0.027232
0.057339
0.053953
0.002402
0.056292
0.077838
0.045707
0.036152
0.027523
0.051547
0.059377
0.037950
0.057814
0.017504
0.040533
0.014894
0.068922
0.067995
0.037356
0.046816
0.026169
0.053133
0.064786
0.029456
0.026590
0.063365
0.061955
0.059446
0.046634
0.010786
0.048797
0.007774
0.076468
0.076197
0.052020
0.035591
0.021297
0.059509
0.035824
0.043990
0.019310
0.060757
0.059783
0.008303
0.062411
0.086248
0.069696
0.034768
0.021693
0.068727
0.046604
0.053761
0.009253
0.070428
0.052588
0.046699
0.010056
0.069013
0.034031
0.044947
0.051021
0.040262
0.030600
0.051283
0.021760
0.056604
0.061093
0.053377
0.063442
0.008661
0.055849
0.005797
0.082164
0.081997
0.043939
0.051775
0.041892
0.030510
0.065600
0.036005
0.064443
0.021332
0.042914
0.014695
0.075191
0.074580
0.064033
0.034313
0.020971
0.063228
0.056882
0.058763
0.032699
0.022971
0.033055
0.045374
0.053529
0.015495
0.065086
0.040607
0.065459
0.063537
0.041605
0.016889
0.034346
0.057348
0.024061
0.040406
0.041716
0.052390
0.027936
0.050430
0.038140
0.041438
0.070370
0.031517
0.026205
0.069181
0.062667
0.029519
0.026523
0.062258
0.058016
0.042632
0.012797
0.071714
0.054863
0.051389
0.004303
0.075194
0.014456
0.064797
0.019763
0.059363
0.038870
0.019206
0.074005
0.073109
0.026846
0.055710
0.063654
0.013011
0.066319
0.091042
0.065717
0.063411
0.049565
0.052250
0.008994
0.081771
0.012186
0.081338
0.049505
0.057571
0.006715
0.075273
0.069370
0.026624
0.031894
0.067454
0.056916
0.045004
0.010481
0.071865
0.048253
0.031316
0.032313
0.048014
0.059922
0.054415
0.041378
0.046423
0.042529
0.047691
0.034660
0.063325
0.057275
0.010582
0.065782
0.009128
0.059981
0.086545
0.087353
0.034372
0.047230
0.063819
0.022048
0.056866
0.023813
0.055638
0.062247
0.033778
0.022069
0.047948
0.048805
0.010884
0.067557
0.049440
0.044491
0.036603
0.055746
0.019131
0.047520
0.012076
0.078566
0.079067
0.055644
0.003906
0.058051
0.081748
0.064673
0.017594
0.031314
0.048424
0.050873
0.053444
0.005261
0.073573
0.017629
0.060931
0.070954
0.039041
0.017067
0.070184
0.038379
0.036489
0.042140
0.053711
0.042610
0.013369
0.067407
0.057464
0.061987
0.040406
0.015962
0.073509
0.035604
0.023237
0.072436
0.054410
0.002747
0.078978
0.066919
0.030500
0.025683
0.065853
0.061351
0.061040
0.021649
0.035362
0.043081
0.055143
0.066634
0.065257
0.045234
0.015327
0.059743
0.059772
0.005733
0.079136
0.049507
0.029406
0.060215
0.027313
0.053059
0.068166
0.066221
0.038759
0.020806
0.049375
0.033978
0.037882
0.058556
0.060987
0.005851
0.082367
0.049696
0.043583
0.050763
0.013052
0.066084
0.064596
0.053903
0.011973
0.066965
0.056654
0.009419
0.085104
0.085288
0.071456
0.048890
0.038111
0.023320
0.030917
0.050030
0.053744
0.040435
0.038257
0.025092
0.025244
0.053419
0.053216
0.032424
0.053257
0.035677
0.044493
0.055579
0.053857
0.027423
0.026920
0.043412
0.040473
0.043506
0.078615
0.044664
0.015635
0.077893
0.033284
0.055589
0.042631
0.072359
0.013312
0.061763
0.008569
0.078853
0.061441
0.030100
0.025590
0.069136
0.067983
0.034917
0.024243
0.065600
0.033093
0.022698
0.064738
0.067234
0.036721
0.018764
0.066408
0.060042
0.059490
0.018181
0.061996
0.031479
0.046933
0.052373
0.005361
0.079034
0.055487
0.062753
0.037350
0.018940
0.029856
0.029422
0.071591
0.070197
0.056243
0.015188
0.067970
0.045452
0.011198
0.075065
0.030096
0.064494
0.060951
0.012550
0.067092
0.011800
0.063691
0.089836
0.090029
0.063798
0.033321
0.042799
0.032506
0.045327
0.018651
0.059793
0.058207
0.029737
0.048788
0.074802
0.061604
0.024009
0.060819
0.043567
0.026177
0.066213
0.024481
0.050966
0.038123
0.038760
0.042351
0.033281
0.045617
0.039183
0.051853
0.068513
0.066680
0.042121
0.018820
0.059069
0.020344
0.040104
0.035137
0.033111
0.026553
0.072128
0.073353
0.016045
0.064338
0.036421
0.054359
0.012774
0.068696
0.052398
0.040069
0.041276
0.039161
0.050186
0.007358
0.050517
0.071116
0.021896
0.056739
0.056650
0.048150
0.007482
0.072588
0.023809
0.056105
0.037744
0.044266
0.046255
0.058658
0.010055
0.072388
0.062310
0.043605
0.013428
0.058810
0.041910
0.017911
0.076270
0.077120
0.066087
0.016056
0.068831
0.094126
0.024730
0.058728
0.040282
0.045718
0.016391
0.062659
0.024319
0.056682
0.051032
0.029026
0.061382
0.064850
0.018690
0.038797
0.056582
0.006355
0.059160
0.084312
0.013252
0.065240
0.038501
0.040776
0.062223
0.068157
0.028105
0.029133
0.066673
0.095983
0.096278
0.068493
0.068616
0.074220
0.068509
0.085086
0.087642
0.090312
0.093089
0.068012
0.067762
0.067760
0.067964
0.069248
0.072833
0.070222
0.071420
0.078226
0.076248
0.082658
0.080367
