# vtk DataFile Version 2.0
Unstructured Grid Example
ASCII
DATASET UNSTRUCTURED_GRID
POINTS 1221 float
0.000189 0.000213 0.000061 
1.000218 -0.000196 -0.000039 
0.999803 0.999790 0.000022 
-0.000229 1.000205 0.000026 
0.000216 0.000220 0.050065 
1.000199 -0.000240 0.049958 
0.999782 0.999790 0.050026 
-0.000196 1.000230 0.050022 
0.000214 0.050208 0.050055 
0.000151 0.100187 0.050037 
0.000023 0.150191 0.050011 
-0.000156 0.200255 0.049992 
-0.000318 0.250361 0.049980 
-0.000430 0.300531 0.049966 
-0.000457 0.350718 0.049958 
-0.000384 0.400892 0.049952 
-0.000229 0.451026 0.049938 
-0.000014 0.501069 0.049925 
0.000200 0.551017 0.049927 
0.000370 0.600893 0.049942 
0.000452 0.650696 0.049982 
0.000434 0.700509 0.050018 
0.000326 0.750356 0.050045 
0.000163 0.800239 0.050065 
-0.000000 0.850194 0.050083 
-0.000126 0.900196 0.050066 
-0.000186 0.950215 0.050046 
0.000188 0.050201 0.000052 
0.000132 0.100173 0.000034 
0.000010 0.150180 0.000023 
-0.000159 0.200247 0.000016 
-0.000317 0.250369 0.000022 
-0.000425 0.300517 0.000025 
-0.000452 0.350713 0.000014 
-0.000367 0.400881 -0.000006 
-0.000202 0.451009 -0.000042 
0.000012 0.501057 -0.000072 
0.000232 0.551018 -0.000094 
0.000398 0.600910 -0.000100 
0.000470 0.650739 -0.000079 
0.000436 0.700538 -0.000034 
0.000316 0.750375 0.000004 
0.000156 0.800261 0.000042 
-0.000031 0.850181 0.000069 
-0.000164 0.900166 0.000068 
-0.000219 0.950191 0.000048 
0.000200 0.000214 0.025063 
-0.000209 1.000214 0.025024 
0.050204 0.000212 0.050035 
0.100178 0.000151 0.050007 
0.150183 0.000026 0.049989 
0.200248 -0.000141 0.049977 
0.250361 -0.000306 0.049970 
0.300512 -0.000417 0.049976 
0.350716 -0.000434 0.050002 
0.400879 -0.000359 0.050031 
0.451007 -0.000196 0.050066 
0.501058 0.000017 0.050091 
0.551016 0.000230 0.050101 
0.600910 0.000391 0.050087 
0.650726 0.000453 0.050052 
0.700542 0.000428 0.050002 
0.750375 0.000302 0.049954 
0.800241 0.000135 0.049925 
0.850172 -0.000042 0.049925 
0.900167 -0.000163 0.049933 
0.950188 -0.000234 0.049943 
0.050176 0.000208 0.000031 
0.100162 0.000149 0.000004 
0.150184 0.000017 0.000002 
0.200253 -0.000149 0.000005 
0.250371 -0.000311 0.000012 
0.300526 -0.000423 0.000030 
0.350726 -0.000452 0.000053 
0.400900 -0.000378 0.000073 
0.451023 -0.000220 0.000091 
0.501063 -0.000012 0.000091 
0.551013 0.000201 0.000080 
0.600891 0.000360 0.000050 
0.650716 0.000449 -0.000004 
0.700503 0.000430 -0.000051 
0.750351 0.000327 -0.000094 
0.800248 0.000162 -0.000098 
0.850193 -0.000008 -0.000088 
0.900183 -0.000133 -0.000067 
0.950204 -0.000184 -0.000054 
1.000206 -0.000215 0.024960 
1.000198 0.049773 0.050007 
1.000133 0.099801 0.050058 
1.000000 0.149807 0.050096 
0.999836 0.199759 0.050093 
0.999670 0.249651 0.050075 
0.999566 0.299501 0.050035 
0.999543 0.349307 0.049982 
0.999630 0.399120 0.049920 
0.999798 0.448981 0.049892 
1.000010 0.498926 0.049895 
1.000226 0.548970 0.049918 
1.000389 0.599084 0.049952 
1.000455 0.649286 0.049988 
1.000424 0.699474 0.050005 
1.000315 0.749633 0.050013 
1.000159 0.799749 0.050015 
0.999982 0.849812 0.050018 
0.999856 0.899824 0.050023 
0.999796 0.949803 0.050023 
1.000212 0.049818 0.000010 
1.000162 0.099842 0.000062 
1.000025 0.149815 0.000082 
0.999852 0.199745 0.000067 
0.999685 0.249624 0.000033 
0.999564 0.299463 -0.000014 
0.999531 0.349250 -0.000080 
0.999605 0.399091 -0.000123 
0.999767 0.448981 -0.000132 
0.999981 0.498947 -0.000104 
1.000196 0.548992 -0.000063 
1.000369 0.599113 0.000001 
1.000453 0.649282 0.000044 
1.000428 0.699479 0.000055 
1.000318 0.749634 0.000053 
1.000158 0.799749 0.000040 
0.999991 0.849816 0.000032 
0.999871 0.899820 0.000022 
0.999814 0.949803 0.000021 
0.999796 0.999793 0.025024 
0.949796 0.999791 0.050002 
0.899820 0.999856 0.049978 
0.849811 0.999987 0.049954 
0.799750 1.000158 0.049946 
0.749639 1.000310 0.049953 
0.699477 1.000415 0.049972 
0.649285 1.000436 0.050002 
0.599122 1.000360 0.050038 
0.548994 1.000200 0.050073 
0.498941 0.999988 0.050100 
0.448982 0.999777 0.050113 
0.399088 0.999614 0.050106 
0.349271 0.999546 0.050070 
0.299455 0.999578 0.050022 
0.249620 0.999694 0.049974 
0.199755 0.999864 0.049945 
0.149832 1.000035 0.049944 
0.099830 1.000154 0.049966 
0.049820 1.000220 0.049990 
0.949815 0.999795 0.000000 
0.899841 0.999843 -0.000027 
0.849816 0.999983 -0.000025 
0.799751 1.000147 -0.000023 
0.749629 1.000312 -0.000004 
0.699471 1.000423 0.000020 
0.649271 1.000451 0.000054 
0.599100 1.000380 0.000077 
0.548975 1.000222 0.000101 
0.498934 1.000012 0.000101 
0.448984 0.999794 0.000091 
0.399113 0.999637 0.000061 
0.349296 0.999563 0.000016 
0.299493 0.999581 -0.000031 
0.249647 0.999689 -0.000066 
0.199751 0.999841 -0.000087 
0.149803 1.000018 -0.000067 
0.099815 1.000146 -0.000034 
0.049784 1.000198 -0.000008 
0.024095 1.000214 0.018897 
0.019590 1.000222 0.035427 
0.975495 0.999790 0.018902 
0.980001 0.999790 0.035432 
0.480609 0.999918 0.025101 
0.774696 1.000234 0.024966 
0.674370 1.000449 0.025009 
0.524693 1.000110 0.025096 
0.724557 1.000382 0.024982 
0.624182 1.000418 0.025042 
0.074809 1.000192 0.024974 
0.224697 0.999764 0.024937 
0.574116 1.000298 0.025074 
0.174798 0.999939 0.024930 
0.124823 1.000091 0.024954 
0.874829 0.999910 0.024967 
0.824792 1.000068 0.024961 
0.374176 0.999576 0.025064 
0.918149 0.999822 0.024985 
0.274559 0.999620 0.024972 
0.324379 0.999544 0.025021 
0.424035 0.999699 0.025096 
0.500001 0.500000 0.049993 
0.291957 0.294588 0.049975 
0.708026 0.705437 0.049983 
0.708719 0.291112 0.050016 
0.291281 0.708890 0.050004 
0.501389 0.781410 0.049964 
0.784448 0.498027 0.050038 
0.499451 0.223249 0.049970 
0.224269 0.502677 0.050060 
0.168193 0.170657 0.049969 
0.830969 0.169690 0.050025 
0.830333 0.831015 0.049972 
0.169034 0.830310 0.049999 
0.563998 0.640854 0.049964 
0.435999 0.359143 0.049975 
0.642210 0.437970 0.050030 
0.353621 0.566671 0.050028 
0.639583 0.847255 0.049963 
0.361004 0.153288 0.049965 
0.150822 0.360799 0.050008 
0.846294 0.359954 0.050015 
0.846797 0.641058 0.050022 
0.641764 0.154087 0.050004 
0.358231 0.845916 0.050014 
0.154250 0.635098 0.050027 
0.678559 0.581837 0.050016 
0.560323 0.331040 0.049987 
0.439673 0.668956 0.049971 
0.321469 0.419986 0.050018 
0.533268 0.882155 0.050017 
0.465733 0.117729 0.050021 
0.882138 0.465150 0.049970 
0.119735 0.466095 0.050010 
0.744002 0.896939 0.049953 
0.107568 0.258549 0.049980 
0.258964 0.097438 0.049960 
0.896203 0.255378 0.050048 
0.890028 0.736735 0.050007 
0.737337 0.110750 0.049989 
0.262662 0.889252 0.049985 
0.110660 0.738815 0.050023 
0.601208 0.740384 0.049948 
0.398791 0.259616 0.049955 
0.744900 0.404830 0.050043 
0.252025 0.597622 0.050054 
0.598459 0.521227 0.050010 
0.397944 0.474673 0.050008 
0.611566 0.254341 0.049994 
0.388299 0.745469 0.049980 
0.097773 0.094961 0.049990 
0.902566 0.094615 0.050017 
0.905045 0.902229 0.049978 
0.098400 0.905601 0.050008 
0.436251 0.902787 0.050051 
0.903382 0.562563 0.049988 
0.563753 0.097222 0.050033 
0.097196 0.563741 0.049996 
0.258593 0.201976 0.049959 
0.741921 0.797598 0.049962 
0.796874 0.258247 0.050030 
0.209357 0.745344 0.050003 
0.195805 0.278928 0.049983 
0.798589 0.716160 0.050001 
0.714568 0.207019 0.050005 
0.285427 0.792984 0.049993 
0.501791 0.411932 0.049987 
0.497534 0.588329 0.049981 
0.240417 0.365218 0.050013 
0.759576 0.634573 0.050019 
0.689556 0.501052 0.050045 
0.645572 0.345688 0.050013 
0.308798 0.504569 0.050048 
0.354423 0.654270 0.050003 
0.080132 0.183604 0.049982 
0.177298 0.084206 0.049970 
0.817337 0.919263 0.049954 
0.919041 0.182154 0.050069 
0.917305 0.820736 0.049998 
0.821236 0.082872 0.049977 
0.080961 0.817846 0.050043 
0.185067 0.914105 0.049968 
0.652275 0.655849 0.049982 
0.347710 0.344172 0.049985 
0.514348 0.696596 0.049956 
0.485651 0.303402 0.049964 
0.609603 0.917598 0.050011 
0.390102 0.082619 0.050002 
0.077953 0.395246 0.049987 
0.916683 0.389330 0.049966 
0.925466 0.659954 0.050012 
0.661054 0.075544 0.050024 
0.339184 0.924506 0.050035 
0.074957 0.661986 0.050000 
0.431041 0.821491 0.050003 
0.821275 0.565732 0.050031 
0.568743 0.178203 0.049996 
0.179837 0.567060 0.050048 
0.190131 0.431594 0.050037 
0.573561 0.818616 0.049972 
0.426836 0.178688 0.049966 
0.821347 0.426768 0.050015 
0.565315 0.457783 0.050004 
0.435479 0.541877 0.049998 
0.773840 0.331355 0.050030 
0.225916 0.668127 0.050027 
0.667649 0.781623 0.049956 
0.333217 0.217949 0.049952 
0.676820 0.930822 0.049973 
0.068055 0.318406 0.049983 
0.323246 0.069180 0.049978 
0.929837 0.322148 0.050013 
0.745934 0.559787 0.050034 
0.448052 0.736187 0.049969 
0.551751 0.263537 0.049979 
0.614421 0.595195 0.049991 
0.385686 0.405586 0.050001 
0.258376 0.443047 0.050042 
0.585111 0.393183 0.050004 
0.414888 0.606816 0.049994 
0.450389 0.427877 0.049991 
0.548863 0.572369 0.049985 
0.484006 0.934607 0.050073 
0.934777 0.514442 0.049946 
0.515993 0.065403 0.050057 
0.065370 0.515989 0.049974 
0.499922 0.838499 0.049991 
0.837993 0.507033 0.050015 
0.500655 0.152251 0.049998 
0.153547 0.501515 0.050030 
0.696515 0.843327 0.049954 
0.304080 0.156352 0.049957 
0.841889 0.302669 0.050035 
0.149802 0.702341 0.050016 
0.159326 0.231285 0.049974 
0.842209 0.773117 0.049990 
0.773270 0.158288 0.050005 
0.226731 0.841713 0.049985 
0.669801 0.238617 0.050003 
0.330181 0.761357 0.049989 
0.696501 0.356066 0.050032 
0.303501 0.643934 0.050026 
0.940057 0.605811 0.049992 
0.607224 0.060823 0.050046 
0.393075 0.939244 0.050071 
0.060739 0.607320 0.049972 
0.700004 0.433626 0.050045 
0.304116 0.558299 0.050051 
0.054635 0.054325 0.050026 
0.945781 0.053874 0.049988 
0.945683 0.945368 0.050003 
0.054336 0.946139 0.050008 
0.772387 0.946259 0.049950 
0.055353 0.232670 0.049979 
0.227235 0.053991 0.049965 
0.945451 0.771276 0.050010 
0.771998 0.055101 0.049962 
0.228597 0.944610 0.049968 
0.946244 0.226731 0.050070 
0.055253 0.771990 0.050044 
0.220051 0.159941 0.049961 
0.775200 0.847735 0.049959 
0.847236 0.224598 0.050040 
0.155897 0.774810 0.050012 
0.552384 0.948032 0.050050 
[...]
POINT_DATA 1221
SCALARS u float 1
LOOKUP_TABLE default
0.030609
0.031093
0.030376
0.032486
0.033194
0.033144
0.031953
0.031851
0.031848
0.025626
0.020285
0.031399
0.050638
0.071917
0.089629
0.102343
0.110802
0.112701
0.109287
0.101893
0.087305
0.070414
0.050971
0.031231
0.022228
0.025516
0.030263
0.029462
0.023190
0.019108
0.030937
0.051214
0.070430
0.088807
0.100430
0.108332
0.111441
0.110300
0.104996
0.092493
0.072886
0.051601
0.032282
0.020659
0.025563
0.030967
0.031496
0.031540
0.031129
0.024577
0.019496
0.030134
0.049946
0.069521
0.088056
0.099891
0.108103
0.111754
0.110092
0.104625
0.090191
0.072699
0.050896
0.030085
0.020262
0.025570
0.032096
0.028849
0.023127
0.019401
0.030919
0.050909
0.071096
0.090203
0.102929
0.110466
0.112265
0.108962
0.101207
0.088905
0.069816
0.051415
0.032854
0.022285
0.024810
0.029408
0.031588
0.031656
0.025901
0.022689
0.032145
0.051102
0.069638
0.087354
0.100810
0.109818
0.113505
0.111320
0.104769
0.089094
0.071143
0.050888
0.031305
0.019917
0.024054
0.029935
0.029345
0.024645
0.021415
0.031808
0.051689
0.072771
0.093484
0.105080
0.110857
0.111292
0.108260
0.101092
0.089451
0.071162
0.051354
0.031464
0.019688
0.023370
0.028643
0.030645
0.030672
0.024380
0.020551
0.031643
0.050325
0.070307
0.088124
0.099942
0.108217
0.111879
0.110253
0.104781
0.090586
0.072561
0.051377
0.030055
0.018925
0.024388
0.029906
0.029049
0.023722
0.019598
0.030453
0.050937
0.071238
0.090339
0.103082
0.110818
0.112610
0.109419
0.100987
0.087209
0.069292
0.049975
0.032395
0.021951
0.025042
0.030851
0.031599
0.031527
0.030529
0.031113
0.112121
0.040555
0.081392
0.111318
0.061524
0.096793
0.028622
0.040982
0.106623
0.023341
0.021553
0.020655
0.023397
0.097684
0.027051
0.061300
0.081090
0.106779
0.000692
0.053771
0.053710
0.053063
0.052936
0.004725
0.004675
0.006030
0.009591
0.004248
0.003705
0.004013
0.002860
0.044655
0.044927
0.045207
0.046356
0.054978
0.054784
0.056580
0.055060
0.055915
0.056396
0.056420
0.054651
0.048069
0.044226
0.044127
0.048119
0.054314
0.054932
0.054907
0.053729
0.050303
0.050487
0.052286
0.051472
0.051834
0.051735
0.051632
0.052181
0.044502
0.044460
0.041905
0.042319
0.033561
0.035088
0.045867
0.045924
0.025500
0.025614
0.024978
0.025219
0.069700
0.070096
0.070406
0.068012
0.036342
0.036158
0.036130
0.035469
0.041433
0.042213
0.043137
0.042774
0.029918
0.030292
0.048113
0.048004
0.035006
0.057288
0.035767
0.057279
0.029969
0.027851
0.029353
0.030382
0.028336
0.027551
0.029904
0.028910
0.057672
0.057814
0.034256
0.034265
0.077167
0.076971
0.080153
0.077565
0.077943
0.079202
0.079270
0.078243
0.035146
0.033941
0.034981
0.032631
0.031815
0.034789
0.035347
0.035023
0.028731
0.028675
0.048181
0.048376
0.047687
0.047617
0.074692
0.074882
0.075355
0.075411
0.032178
0.031923
0.031791
0.048066
0.047671
0.032716
0.045723
0.045722
0.031190
0.031497
0.082290
0.082561
0.082209
0.081274
0.027563
0.027374
0.033107
0.031713
0.051276
0.051468
0.051453
0.052199
0.029496
0.027512
0.027248
0.027128
0.049546
0.049877
0.055499
0.055659
0.087532
0.087655
0.088194
0.085767
0.043351
0.041883
0.032119
0.032613
0.031230
0.030937
0.047371
0.049677
0.047111
0.047921
0.047949
0.048598
0.048511
0.048317
0.024575
0.028237
0.028549
0.028548
0.088644
0.089251
0.088240
0.088151
0.053806
0.053221
0.054201
0.054020
0.026300
0.025737
0.038336
0.038162
0.051770
0.051065
0.050927
0.055950
0.056011
0.055305
0.055015
0.026411
0.025519
0.027707
0.026014
0.025743
0.025192
0.026916
0.025258
0.038481
0.040898
0.026384
0.043758
0.051967
0.052087
0.025499
0.055636
0.055800
0.056162
0.043055
0.043072
0.042592
0.042755
0.049485
0.049451
0.044145
0.044128
0.044222
0.069534
0.070452
0.069634
0.070657
0.015042
0.014020
0.014534
0.013779
0.044047
0.043494
0.041858
0.038885
0.020126
0.019798
0.019466
0.019392
0.055481
0.055279
0.069421
0.068907
0.069468
0.068136
0.044404
0.019465
0.019796
0.052793
0.053003
0.048752
0.048339
0.049420
0.049341
0.022027
0.065103
0.064668
0.065054
0.093699
0.093985
0.093530
0.092175
0.020763
0.019471
0.020002
0.058162
0.058133
0.059060
0.057224
0.070502
0.029766
0.029390
0.018120
0.018502
0.044576
0.067359
0.068143
0.067435
0.067618
0.021172
0.022190
0.021836
0.040759
0.040542
0.027157
0.034792
0.087218
0.087438
0.086670
0.087224
0.047044
0.038121
0.047190
0.018255
0.017907
0.019459
0.018582
0.035660
0.048708
0.048635
0.046833
0.047148
0.030211
0.029593
0.031389
0.030716
0.029453
0.029394
0.030797
0.028790
0.039187
0.039416
0.063190
0.023423
0.038222
0.017423
0.017048
0.051517
0.051521
0.019121
0.037247
0.037043
0.036985
0.022360
0.035647
0.035538
0.022332
0.052230
0.052151
0.053509
0.053153
0.082712
0.081796
0.082679
0.081221
0.031890
0.031329
0.065467
0.065866
0.065701
0.036530
0.037716
0.037730
0.034268
0.016104
0.018167
0.091234
0.094307
0.090612
0.091089
0.043440
0.046839
0.043954
0.041989
0.051863
0.051626
0.051878
0.049969
0.062186
0.037690
0.049989
0.049643
0.034072
0.040195
0.034268
0.034393
0.036780
0.035933
0.036436
0.020223
0.066648
0.066494
0.067138
0.052029
0.052189
0.031838
0.096994
0.095809
0.096067
0.096032
0.049283
0.050603
0.065246
0.066041
0.066109
0.018140
0.029980
0.028847
0.030148
0.028948
0.029635
0.028824
0.029265
0.028750
0.069349
0.048943
0.045770
0.072849
0.056878
0.056746
0.041484
0.041417
0.065171
0.056151
0.056134
0.019352
0.017027
0.017270
0.037452
0.036591
0.073122
0.073465
0.040717
0.040686
0.042709
0.042822
0.032159
0.039476
0.049519
0.049504
0.025799
0.080064
0.080385
0.079957
0.080520
0.046118
0.046268
0.046281
0.099878
0.099096
0.098610
0.099324
0.045963
0.046266
0.037426
0.045706
0.045169
0.018194
0.048300
0.045674
0.038829
0.039817
0.031525
0.031175
0.031087
0.031172
0.049898
0.048327
0.045972
0.040180
0.040161
0.040454
0.041894
0.042157
0.045667
0.032729
0.043243
0.044005
0.044888
0.041211
0.061991
0.061937
0.062750
0.015384
0.089835
0.090713
0.088556
0.091023
0.032553
0.032707
0.031675
0.031693
0.017804
0.017716
0.037175
0.053814
0.053953
0.052985
0.053119
0.038193
0.038260
0.066390
0.075454
0.075750
0.075234
0.022617
0.022255
0.022231
0.022967
0.049053
0.049141
0.027415
0.027486
0.062745
0.047594
0.075472
0.076028
0.075109
0.074619
0.030270
0.030955
0.031161
0.031949
0.111993
0.062139
0.041106
0.023783
0.020690
0.027699
0.041677
0.024969
0.022620
0.027850
0.081897
0.111796
0.107977
0.098643
0.106841
0.097288
0.061730
0.080874
0.031412
0.032150
0.030831
0.031807
0.111833
0.061379
0.022197
0.024609
0.028916
0.041044
0.023174
0.020609
0.040286
0.026841
0.096847
0.111064
0.081602
0.106584
0.097954
0.080941
0.061595
0.106364
0.000939
0.053683
0.053753
0.053059
0.053243
0.004386
0.006122
0.004299
0.010096
0.003038
0.001502
0.001960
0.003424
0.045115
0.045372
0.046229
0.045898
0.056060
0.055801
0.055904
0.056952
0.055247
0.055323
0.054831
0.054991
0.047728
0.047831
0.043481
0.043983
0.055776
0.054563
0.053948
0.052521
0.050457
0.050585
0.051905
0.050796
0.052609
0.052338
0.051900
0.051916
0.044193
0.042854
0.045638
0.045043
0.034500
0.035051
0.046003
0.045632
0.024907
0.025470
0.024895
0.026094
0.068985
0.067242
0.068323
0.069245
0.035712
0.035890
0.035841
0.034827
0.041517
0.042747
0.042771
0.042790
0.029758
0.029874
0.048190
0.048476
0.035141
0.035515
0.057196
0.057156
0.030066
0.026989
0.028673
0.030231
0.029490
0.030173
0.029765
0.030907
0.057780
0.033389
0.057531
0.033840
0.079213
0.078655
0.078801
0.079892
0.078437
0.077788
0.077334
0.079715
0.034035
0.033181
0.034500
0.035681
0.032194
0.035727
0.035725
0.036196
0.028282
0.028608
0.047199
0.048325
0.048968
0.047603
0.076748
0.075312
0.075751
0.078109
0.032488
0.031654
0.031499
0.047696
0.048014
0.032153
0.045430
0.045626
0.031517
0.030923
0.082207
0.080681
0.082112
0.081506
0.028697
0.025691
0.028133
0.032021
0.051333
0.051459
0.051956
0.052135
0.029410
0.028529
0.028114
0.028084
0.049658
0.049170
0.054474
0.054632
0.084610
0.085357
0.085059
0.087292
0.027436
0.028921
0.030002
0.030399
0.030005
0.031729
0.047416
0.049998
0.047301
0.048855
0.048702
0.047907
0.048380
0.048988
0.024036
0.027513
0.027859
0.027512
0.090222
0.090191
0.090045
0.086733
0.054129
0.053980
0.053316
0.053052
0.055154
0.027096
0.037682
0.038023
0.050434
0.026675
0.055136
0.056115
0.056136
0.051242
0.043559
0.025306
0.024778
0.025676
0.025327
0.026232
0.025449
0.026038
0.026998
0.040375
0.040921
0.044408
0.051949
0.051771
0.050352
0.050548
0.057730
0.057260
0.057797
0.042906
0.043343
0.042526
0.042402
0.049544
0.049858
0.044436
0.044851
0.044930
0.070394
0.069004
0.071183
0.068546
0.013372
0.015348
0.014566
0.015852
0.042868
0.043835
0.038491
0.038692
0.019960
0.019756
0.019532
0.019961
0.055428
0.055542
0.068505
0.068167
0.068441
0.069213
0.045169
0.019278
0.020015
0.048930
0.049038
0.048520
0.048044
0.022105
0.066426
0.066337
0.067446
0.092830
0.090944
0.092326
0.093176
0.021948
0.022255
0.022128
0.058064
0.056102
0.057264
0.057475
0.070945
0.029061
0.029568
0.018052
0.018368
0.044658
0.067805
0.068451
0.067750
0.069922
0.029685
0.020300
0.020763
0.020775
0.040520
0.040107
0.033363
0.041229
0.041384
0.088589
0.087786
0.088563
0.089975
0.046893
0.037437
0.047346
0.017928
0.017217
0.017411
0.017804
0.034476
0.048469
0.048482
0.047076
0.047218
0.030467
0.029286
0.031107
0.029045
0.030538
0.031210
0.030523
0.030988
0.063461
0.041929
0.051889
0.032502
0.023297
0.038209
0.024559
0.016935
0.017580
0.051143
0.052735
0.051325
0.052395
0.019053
0.037494
0.036845
0.036625
0.021787
0.035121
0.021806
0.034986
0.052212
0.053147
0.053295
0.080692
0.082427
0.081251
0.084258
0.032275
0.032477
0.064755
0.064152
0.064703
0.036406
0.036842
0.036615
0.036246
0.035866
0.035628
0.093060
0.093140
0.092920
0.094079
0.042801
0.044051
0.042701
0.043547
0.050877
0.050812
0.050818
0.051361
0.062639
0.037847
0.050013
0.050106
0.033892
0.034279
0.037916
0.038491
0.038094
0.019935
0.068583
0.068167
0.069306
0.095756
0.096526
0.096740
0.095060
0.048621
0.048885
0.050781
0.065950
0.064924
0.064445
0.019372
0.027943
0.027665
0.028527
0.028089
0.028622
0.027684
0.029819
0.029521
0.067693
0.039669
0.045731
0.074359
0.056230
0.057305
0.057372
0.019147
0.040816
0.040733
0.066514
0.018442
0.018359
0.019156
0.056057
0.017686
0.074926
0.074719
0.039636
0.051874
0.043290
0.042741
0.031471
0.031760
0.049710
0.049123
0.081249
0.080795
0.081130
0.083426
0.047497
0.048133
0.052206
0.047161
0.097917
0.098922
0.098899
0.099184
0.046159
0.045247
0.038019
0.045389
0.045370
0.044813
0.016947
0.049346
0.039219
0.038556
0.031784
0.031513
0.031009
0.031813
0.056048
0.055779
0.046617
0.040845
0.040767
0.040062
0.041984
0.041913
0.045396
0.045897
0.042745
0.044500
0.044335
0.040271
0.062722
0.062237
0.062464
0.015390
0.088335
0.087407
0.091084
0.087501
0.030256
0.030816
0.030225
0.032258
0.017395
0.017484
0.054026
0.054136
0.053114
0.053404
0.040426
0.040230
0.037987
0.037717
0.064909
0.077475
0.078386
0.076918
0.021824
0.023574
0.022753
0.025159
0.049071
0.048758
0.027079
0.027840
0.063047
0.076534
0.074950
0.076291
0.073528
0.031662
0.031567
0.031161
0.032104
0.112166
0.061546
0.041135
0.024856
0.022146
0.029234
0.040952
0.023655
0.021249
0.027794
0.081913
0.111132
0.096673
0.106960
0.098118
0.107053
0.062068
0.081554
