# vtk DataFile Version 2.0
Unstructured Grid Example
ASCII
DATASET UNSTRUCTURED_GRID
POINTS 10000 float
0.000000 0.000000 0.000000 
0.040304 0.000000 0.010569 
0.050171 -0.031250 0.020312 
-0.050715 0.031250 0.018913 
0.048027 -0.062500 0.027048 
-0.078586 -0.020833 0.018294 
0.045589 0.020833 -0.066573 
0.007756 0.062500 0.054571 
0.046146 -0.086806 0.034439 
-0.089756 -0.052083 0.009050 
0.068393 -0.017361 -0.076627 
0.001330 0.017361 0.102701 
-0.061793 0.052083 -0.065724 
0.057420 0.086806 0.004291 
0.041137 -0.111111 0.039839 
-0.093134 -0.083333 -0.002584 
0.084634 -0.055556 -0.073319 
-0.014018 -0.027778 0.121066 
-0.073274 -0.000000 -0.101271 
0.119376 0.027778 0.024549 
-0.096111 0.055556 0.057457 
0.026674 0.083333 -0.089270 
0.024974 0.111111 0.051533 
0.036339 -0.133681 0.045567 
-0.095289 -0.109375 -0.014984 
0.098710 -0.085069 -0.065474 
-0.031964 -0.060764 0.128660 
-0.067463 -0.036458 -0.124044 
0.137435 -0.012153 0.047235 
-0.133248 0.012153 0.058006 
0.057394 0.036458 -0.129012 
0.042086 0.060764 0.125714 
-0.103601 0.085069 -0.057423 
0.093797 0.109375 -0.022508 
-0.032603 0.133681 0.048311 
0.030065 -0.156250 0.049596 
-0.093263 -0.135417 -0.027242 
0.108587 -0.114583 -0.053453 
-0.050053 -0.093750 0.128388 
-0.054181 -0.072917 -0.139733 
0.141914 -0.052083 0.070182 
-0.157228 -0.031250 0.045613 
0.086491 -0.010417 -0.142086 
0.032202 0.010417 0.163194 
-0.131862 0.031250 -0.097023 
0.157409 0.052083 -0.016952 
-0.099034 0.072917 0.112487 
-0.002721 0.093750 -0.137773 
0.083501 0.114583 0.087613 
-0.096937 0.135417 -0.006582 
0.045321 0.156250 -0.036190 
0.023142 -0.178571 0.052278 
-0.088479 -0.160714 -0.038711 
0.114920 -0.142857 -0.039261 
-0.066997 -0.125000 0.122648 
-0.036825 -0.107143 -0.149401 
0.137232 -0.089286 0.091388 
-0.171306 -0.071429 0.026614 
0.112289 -0.053571 -0.140276 
0.012248 -0.035714 0.183659 
-0.134957 -0.017857 -0.128934 
0.187459 -0.000000 0.003927 
-0.140239 0.017857 0.123169 
0.019929 0.035714 -0.182985 
0.106316 0.053571 0.144856 
-0.170042 0.071429 -0.033765 
0.140938 0.089286 -0.085561 
-0.043049 0.107143 0.147727 
-0.061802 0.125000 -0.125347 
0.113175 0.142857 0.044039 
-0.090023 0.160714 0.034972 
0.025311 0.178571 -0.051263 
0.016282 -0.200321 0.054858 
-0.083294 -0.184295 -0.050003 
0.120362 -0.168269 -0.024521 
-0.083576 -0.152244 0.115064 
-0.017843 -0.136218 -0.156618 
0.128410 -0.120192 0.111658 
-0.180361 -0.104167 0.004673 
0.135844 -0.088141 -0.131074 
-0.012039 -0.072115 0.195083 
-0.126160 -0.056090 -0.156014 
0.202174 -0.040064 0.030385 
-0.171673 -0.024038 0.115556 
0.048819 -0.008013 -0.202374 
0.100704 0.008013 0.182201 
-0.196158 0.024038 -0.065931 
0.186894 0.040064 -0.082875 
-0.080306 0.056090 0.183869 
-0.063306 0.072115 -0.184917 
0.165722 0.088141 0.090389 
-0.175151 0.104167 0.043291 
0.094230 0.120192 -0.141695 
0.024299 0.136218 0.155747 
-0.111080 0.152244 -0.088802 
0.122557 0.168269 -0.008252 
-0.067065 0.184295 0.070288 
0.001162 0.200321 -0.057211 
0.009215 -0.221774 0.056997 
-0.077157 -0.206989 -0.060988 
0.124469 -0.192204 -0.009071 
-0.099551 -0.177419 0.105495 
0.002388 -0.162634 -0.161436 
0.116352 -0.147849 0.130844 
-0.185602 -0.133065 -0.019059 
0.157520 -0.118280 -0.117110 
-0.038588 -0.103495 0.200791 
-0.110762 -0.088710 -0.179944 
0.208623 -0.073925 0.059404 
-0.197973 -0.059140 0.099130 
0.080241 -0.044355 -0.210027 
0.083593 -0.029570 0.211318 
-0.205676 -0.014785 -0.099982 
0.219653 0.000000 -0.065345 
-0.117580 0.014785 0.196147 
-0.045507 0.029570 -0.222648 
0.181995 0.044355 0.132014 
-0.219965 0.059140 0.025202 
0.142228 0.073925 -0.163779 
0.005607 0.088710 0.211226 
-0.142067 0.103495 -0.147048 
0.195919 0.118280 0.011965 
-0.145003 0.133065 0.117410 
0.025912 0.147849 -0.173166 
0.090241 0.162634 0.133880 
-0.141028 0.177419 -0.033925 
0.109188 0.192204 -0.060440 
-0.031275 0.206989 0.093245 
-0.023438 0.221774 -0.052766 
0.001850 -0.243243 0.057700 
-0.068908 -0.229730 -0.070541 
0.125308 -0.216216 0.006959 
-0.113212 -0.202703 0.092707 
0.023293 -0.189189 -0.161756 
0.100230 -0.175676 0.146942 
-0.185237 -0.162162 -0.043481 
0.175322 -0.148649 -0.098315 
-0.065782 -0.135135 0.199778 
-0.089769 -0.121622 -0.199123 
0.207125 -0.108108 0.088949 
-0.218472 -0.094595 0.076300 
0.111957 -0.081081 -0.208306 
0.059190 -0.067568 0.233305 
-0.204075 -0.054054 -0.133909 
0.243504 -0.040541 -0.039527 
-0.153994 -0.027027 0.195078 
-0.018303 -0.013514 -0.248963 
0.181934 0.000000 0.171464 
-0.249610 0.013514 -0.003532 
0.185619 0.027027 -0.165273 
-0.025042 0.040541 0.245417 
-0.145756 0.054054 -0.195789 
0.236400 0.067568 0.045275 
-0.201313 0.081081 0.124093 
0.063232 0.094595 -0.222606 
0.101055 0.108108 0.201496 
-0.204088 0.121622 -0.077823 
0.195533 0.135135 -0.077493 
-0.087763 0.148649 0.180835 
-0.054371 0.162162 -0.182338 
0.152618 0.175676 0.091355 
-0.160093 0.189189 0.032828 
0.085842 0.202703 -0.118502 
0.014365 0.216216 0.124676 
-0.074496 0.229730 -0.064611 
0.057708 0.243243 -0.001569 
-0.005513 -0.264678 0.057148 
-0.059129 -0.252367 -0.078518 
0.123283 -0.240057 0.022906 
-0.124343 -0.227746 0.077597 
0.043975 -0.215436 -0.158128 
0.081191 -0.203125 0.159684 
-0.179961 -0.190814 -0.067488 
0.188938 -0.178504 -0.076088 
-0.092307 -0.166193 0.192899 
-0.064863 -0.153883 -0.213222 
0.198758 -0.141572 0.117488 
-0.232878 -0.129261 0.049094 
0.142213 -0.116951 -0.198617 
0.029962 -0.104640 0.247999 
-0.193263 -0.092330 -0.165757 
0.258604 -0.080019 -0.008458 
-0.187469 -0.067708 0.183362 
0.014532 -0.055398 -0.264709 
0.169537 -0.043087 0.206764 
-0.266356 -0.030777 -0.038182 
0.223123 -0.018466 -0.152401 
-0.061706 -0.006155 0.263638 
-0.132585 0.006155 -0.236080 
0.256702 0.018466 0.084344 
-0.245233 0.030777 0.110745 
0.105352 0.043087 -0.245754 
0.087569 0.055398 0.250227 
-0.231064 0.067708 -0.123999 
0.250756 0.080019 -0.063788 
-0.139546 0.092330 0.212962 
-0.040183 0.104640 -0.246549 
0.191836 0.116951 0.151236 
-0.237344 0.129261 0.017602 
0.158247 0.141572 -0.168125 
-0.003011 0.153883 0.222849 
-0.142308 0.166193 -0.159621 
0.202645 0.178504 0.020547 
-0.154096 0.190814 0.114870 
0.033583 0.203125 -0.175963 
0.086213 0.215436 0.139662 
-0.141016 0.227746 -0.039959 
0.112051 0.240057 -0.056286 
-0.034962 0.252367 0.091864 
-0.021187 0.264678 -0.053360 
-0.012789 -0.285948 0.056034 
-0.048735 -0.274510 -0.085666 
0.119869 -0.263072 0.038653 
-0.134071 -0.251634 0.061438 
0.064351 -0.240196 -0.152428 
0.060708 -0.228758 0.170451 
-0.171912 -0.217320 -0.091037 
0.199935 -0.205882 -0.052036 
-0.118145 -0.194444 0.182490 
-0.037769 -0.183007 -0.223945 
0.186032 -0.171569 0.145003 
-0.243007 -0.160131 0.019370 
0.170967 -0.148693 -0.183658 
-0.002057 -0.137255 0.257345 
-0.176188 -0.125817 -0.195442 
0.267080 -0.114379 0.025593 
-0.217892 -0.102941 0.164304 
0.050417 -0.091503 -0.272314 
0.148635 -0.080065 0.237837 
-0.273162 -0.068627 -0.075778 
0.254860 -0.057190 -0.129788 
-0.100974 -0.045752 0.269778 
-0.108370 -0.034314 -0.268604 
0.262365 -0.022876 0.125343 
-0.278772 -0.011438 0.084998 
0.148257 -0.000000 -0.251176 
0.060301 0.011438 0.285136 
-0.236522 0.022876 -0.169126 
0.287528 0.034314 -0.034924 
-0.187392 0.045752 0.218771 
-0.009532 0.057190 -0.285846 
0.198347 0.068627 0.202530 
-0.280050 0.080065 -0.015194 
0.214043 0.091503 -0.175733 
-0.038551 0.102941 0.270160 
-0.151471 0.114379 -0.221457 
0.256248 0.125817 0.059804 
-0.224307 0.137255 0.126162 
0.078171 0.148693 -0.238431 
0.100473 0.160131 0.222110 
-0.216847 0.171569 -0.092796 
0.214313 0.183007 -0.075154 
-0.102674 0.194444 0.191621 
-0.051060 0.205882 -0.200187 
0.162777 0.217320 0.106513 
-0.178565 0.228758 0.029220 
0.102351 0.240196 -0.129998 
0.011001 0.251634 0.147067 
-0.091766 0.263072 -0.086264 
0.098551 0.274510 0.001269 
-0.042876 0.285948 0.038275 
-0.019787 -0.307203 0.053766 
-0.037312 -0.296610 -0.091030 
0.113898 -0.286017 0.053644 
-0.140983 -0.275424 0.043838 
0.083536 -0.264831 -0.143327 
0.038577 -0.254237 0.177571 
-0.159806 -0.243644 -0.112942 
0.206531 -0.233051 -0.026243 
-0.141855 -0.222458 0.167470 
-0.008923 -0.211864 -0.229543 
0.168203 -0.201271 0.169865 
-0.247291 -0.190678 -0.012049 
0.196492 -0.180085 -0.163146 
-0.035654 -0.169492 0.260111 
-0.153136 -0.158898 -0.221262 
0.268210 -0.148305 0.061037 
-0.243737 -0.137712 0.138866 
0.087440 -0.127119 -0.271756 
0.120964 -0.116525 0.263526 
-0.270923 -0.105932 -0.114173 
0.280287 -0.095339 -0.100030 
-0.140596 -0.084746 0.265908 
-0.076651 -0.074153 -0.293739 
0.256947 -0.063559 0.166116 
-0.303657 -0.052966 0.051412 
0.190184 -0.042373 -0.244317 
0.024900 -0.031780 0.309881 
-0.228342 -0.021186 -0.212290 
0.312312 -0.010593 0.002297 
-0.231974 0.000000 0.209390 
0.029593 0.010593 -0.310915 
0.187874 0.021186 0.248818 
-0.305721 0.031780 -0.056400 
0.262454 0.042373 -0.164252 
-0.082138 0.052966 0.296823 
-0.139022 0.063559 -0.272561 
0.284381 0.074153 0.106233 
-0.278870 0.084746 0.112720 
0.128117 0.095339 -0.268613 
0.085923 0.105932 0.281162 
-0.249802 0.116525 -0.147231 
0.279262 0.127119 -0.059245 
-0.163019 0.137712 0.228290 
-0.033341 0.148305 -0.273039 
0.204476 0.158898 0.174921 
-0.262392 0.169492 0.008918 
0.182351 0.180085 -0.178813 
-0.013255 0.190678 0.247230 
-0.151809 0.201271 -0.184662 
0.227434 0.211864 0.032306 
-0.181074 0.222458 0.124020 
0.047187 0.233051 -0.202773 
0.096041 0.243644 0.170499 
-0.172706 0.254237 -0.056501 
0.151105 0.264831 -0.068470 
-0.057999 0.275424 0.135772 
-0.041738 0.286017 -0.118779 
0.086746 0.296610 0.046409 
-0.055505 0.307203 0.014195 
-0.026539 -0.328358 0.050869 
-0.025429 -0.318408 -0.095293 
0.106486 -0.308458 0.068013 
-0.146119 -0.298507 0.025569 
0.101774 -0.288557 -0.132242 
0.015664 -0.278607 0.182329 
-0.145251 -0.268657 -0.133554 
0.210195 -0.258706 0.000387 
-0.163884 -0.248756 0.149578 
0.020757 -0.238806 -0.231629 
0.147105 -0.228856 0.192604 
-0.247456 -0.218905 -0.044241 
0.219387 -0.208955 -0.138990 
-0.069896 -0.199005 0.258114 
-0.126087 -0.189055 -0.243868 
[...]
POINT_DATA 10000
SCALARS u float 1
LOOKUP_TABLE default
-0.052524
-0.034380
-0.021350
-0.028202
-0.006216
-0.016790
0.004687
-0.013948
0.018022
0.008924
0.023528
-0.002874
0.026257
0.015606
0.046904
0.039854
0.045188
0.018145
0.062871
0.038322
0.036401
0.059311
0.037334
0.081217
0.072903
0.078189
0.051375
0.099457
0.067525
0.067478
0.099041
0.056280
0.093829
0.083480
0.067533
0.120115
0.114105
0.116452
0.090484
0.138955
0.102690
0.110338
0.137759
0.081400
0.131209
0.119517
0.098776
0.142046
0.106480
0.119437
0.121804
0.164220
0.159061
0.158643
0.135601
0.183864
0.143541
0.158466
0.181540
0.127901
0.175948
0.159692
0.141763
0.194958
0.139845
0.165501
0.175348
0.137692
0.186342
0.151968
0.155697
0.167258
0.212895
0.209190
0.205335
0.186991
0.235758
0.189858
0.211330
0.235539
0.182703
0.231624
0.206236
0.193686
0.247711
0.185911
0.221872
0.224321
0.178915
0.241030
0.196201
0.205344
0.231836
0.186130
0.232960
0.215289
0.196586
0.217315
0.266241
0.264180
0.259007
0.240970
0.289005
0.239391
0.265755
0.287594
0.234599
0.287875
0.253891
0.250070
0.303258
0.233574
0.282479
0.275098
0.230985
0.298651
0.244073
0.264414
0.295666
0.230072
0.293261
0.264534
0.244775
0.292184
0.240341
0.270839
0.274302
0.243150
0.267913
0.324133
0.323177
0.315400
0.299570
0.345332
0.293122
0.326622
0.340652
0.291041
0.352300
0.308208
0.310555
0.360864
0.288479
0.345873
0.329842
0.290601
0.362447
0.296339
0.328453
0.355091
0.284629
0.353161
0.316970
0.303171
0.353920
0.286647
0.337762
0.333476
0.286795
0.346802
0.300992
0.311796
0.336485
0.292072
0.331131
0.314870
0.386026
0.385643
0.375663
0.362299
0.405889
0.349439
0.390651
0.396900
0.355986
0.414614
0.369555
0.377664
0.418193
0.348938
0.416403
0.386357
0.355951
0.426316
0.352156
0.396485
0.412090
0.341940
0.425589
0.375833
0.367830
0.421462
0.340706
0.407707
0.393305
0.343459
0.416751
0.357317
0.378626
0.407425
0.340895
0.405580
0.377686
0.356846
0.406692
0.348785
0.383996
0.386908
0.367974
0.389747
0.449844
0.449928
0.439037
0.429069
0.465934
0.410805
0.456641
0.457271
0.420030
0.476490
0.425342
0.444811
0.481966
0.405350
0.479190
0.443152
0.420895
0.489936
0.408612
0.461603
0.472303
0.404093
0.495079
0.433518
0.441692
0.490295
0.402059
0.478162
0.458402
0.411376
0.488868
0.409934
0.449459
0.474100
0.397904
0.478329
0.437670
0.422063
0.479386
0.409071
0.457508
0.452173
0.405270
0.471645
0.419556
0.433536
0.462936
0.414187
0.456066
0.443550
0.438567
0.515437
0.516152
0.502473
0.497954
0.530616
0.474582
0.524529
0.517490
0.483798
0.538881
0.480493
0.511580
0.542668
0.472265
0.544215
0.500295
0.488269
0.553764
0.466289
0.532496
0.535863
0.468340
0.549535
0.488950
0.516162
0.560092
0.463471
0.548082
0.514561
0.484001
0.565183
0.473306
0.529858
0.547075
0.464405
0.554032
0.493976
0.492923
0.551237
0.461014
0.542829
0.519639
0.466863
0.545355
0.478378
0.504538
0.532667
0.456771
0.532348
0.500497
0.477394
0.534538
0.469271
0.513306
0.518535
0.482767
0.530702
0.496929
0.507954
0.580585
0.582505
0.567820
0.566715
0.592983
0.540121
0.594399
0.573463
0.547466
0.603057
0.537789
0.582357
0.599679
0.541942
0.617478
0.561722
0.559582
0.615983
0.530647
0.606524
0.592437
0.537819
0.619910
0.535492
0.582454
0.616461
0.525033
0.622803
0.576150
0.556185
0.632905
0.531289
0.589562
0.606508
0.521561
0.625823
0.558535
0.572875
0.624016
0.524180
0.617757
0.585577
0.547507
0.618783
0.530384
0.578383
0.602493
0.516888
0.607789
0.561865
0.548093
0.611177
0.523242
0.587006
0.581888
0.528130
0.605233
0.544230
0.564585
0.597107
0.533924
0.593528
0.573722
0.557629
0.593687
0.561082
0.576332
0.645222
0.648879
0.631922
0.634876
0.652973
0.604694
0.663303
0.634101
0.614636
0.668478
0.599574
0.654594
0.659104
0.602612
0.679166
0.626307
0.631198
0.683323
0.593683
0.676457
0.654033
0.608409
0.693718
0.601385
0.653126
0.677760
0.592861
0.684129
0.624818
0.609805
0.686724
0.584847
0.665814
0.656858
0.578446
0.685747
0.605397
0.640061
0.686074
0.581066
0.682709
0.642255
0.610808
0.700148
0.597661
0.655347
0.674520
0.586751
0.687797
0.623593
0.620929
0.681735
0.580171
0.663356
0.649129
0.590026
0.677710
0.595448
0.633655
0.663406
0.579367
0.665817
0.624646
0.606229
0.671676
0.591538
0.649922
0.652401
0.608120
0.669475
0.622846
0.631434
0.662600
0.620766
0.655702
0.636927
0.707472
0.711547
0.692933
0.702011
0.711359
0.668932
0.728993
0.688922
0.678510
0.731601
0.661156
0.720237
0.714230
0.661836
0.739280
0.674877
0.691011
0.734190
0.656555
0.744868
0.711768
0.678954
0.765550
0.660529
0.730977
0.748153
0.650569
0.754102
0.684525
0.683774
0.750220
0.641595
0.735480
0.713309
0.646561
0.754773
0.659626
0.703354
0.738720
0.637323
0.747648
0.692852
0.673949
0.764434
0.644699
0.715965
0.736977
0.642384
0.757254
0.679638
0.696602
0.753432
0.641874
0.744415
0.707656
0.648429
0.754244
0.655469
0.708288
0.728104
0.632807
0.737815
0.683386
0.669889
0.739028
0.641068
0.716559
0.710259
0.646259
0.733249
0.660166
0.692108
0.727137
0.649224
0.732327
0.698006
0.672797
0.741766
0.669633
0.710392
0.722948
0.679466
0.737620
0.698362
0.703977
0.765235
0.771124
0.749514
0.764402
0.765056
0.727906
0.791531
0.743313
0.744469
0.789120
0.719673
0.783637
0.764562
0.721556
0.800151
0.729277
0.756735
0.790981
0.705343
0.800307
0.757384
0.731579
0.803374
0.707135
0.788615
0.806016
0.726602
0.817808
0.737692
0.754436
0.811243
0.701736
0.798230
0.763361
0.708695
0.818205
0.705916
0.773043
0.790508
0.693485
0.804667
0.737998
0.734751
0.803692
0.697398
0.790149
0.778601
0.693242
0.814910
0.723202
0.761684
0.809220
0.692959
0.810229
0.751736
0.722634
0.820952
0.708621
0.778473
0.789909
0.695680
0.812126
0.749681
0.741632
0.804659
0.690536
0.784579
0.761400
0.703876
0.800802
0.707870
0.754931
0.785042
0.688822
0.794096
0.741226
0.723319
0.793211
0.695617
0.769353
0.767876
0.707845
0.796263
0.734001
0.754316
0.793155
0.719725
0.785795
0.760701
0.739188
0.792322
0.754625
0.768838
0.771404
0.816922
0.823859
0.801180
0.820096
0.813987
0.784906
0.844676
0.787351
0.797089
0.840027
0.775030
0.841965
0.809574
0.772406
0.846636
0.769342
0.815526
0.845895
0.759247
0.854312
0.811852
0.792076
0.858384
0.756810
0.836715
0.852753
0.782768
0.861841
0.769052
0.812524
0.857940
0.746459
0.860151
0.811671
0.766884
0.885133
0.743214
0.824219
0.824815
0.735015
0.864691
0.778418
0.787426
0.854265
0.740837
0.849017
0.820744
0.750158
0.868765
0.753150
0.814445
0.854606
0.742707
0.869143
0.803673
0.796464
0.874646
0.750036
0.850168
0.831679
0.749899
0.869398
0.777401
0.805074
0.862695
0.738900
0.857278
0.812476
0.761378
0.872272
0.763798
0.830213
0.845421
0.738482
0.859827
0.791118
0.786024
0.858119
0.743842
0.836596
0.820347
0.750722
0.852600
0.762154
0.802347
0.841977
0.743232
0.845152
0.806281
0.779344
0.851298
0.764087
0.826106
0.829468
0.748783
0.842208
0.787973
0.801813
0.845868
0.790129
0.846476
0.826486
0.802108
0.840418
0.797582
0.860106
0.867808
0.843421
0.869669
0.853075
0.831212
0.888704
0.825356
0.844622
0.883350
0.816749
0.892395
0.850852
0.820686
0.891873
0.808928
0.872390
0.877116
0.794402
0.894317
0.837779
0.832176
0.902514
0.801429
0.895017
0.870445
0.812325
0.905182
0.808262
0.862401
0.899255
0.785959
0.901990
0.835386
0.817568
0.911575
0.787534
0.878529
0.866968
0.767340
0.902150
0.811036
0.850477
0.909741
0.780243
0.897596
0.856019
0.790586
0.890933
0.789023
0.869255
0.878342
0.776915
0.905740
0.825911
0.825635
0.920986
0.796412
0.892362
0.872191
0.802466
0.906687
0.800394
0.853658
0.902995
0.780533
0.914435
0.845512
0.817020
0.923807
0.796724
0.889887
0.895166
0.788950
0.916604
0.823187
0.839448
0.906000
0.779487
0.890868
0.860241
0.799317
0.906938
0.798783
0.861376
0.888551
0.777973
0.893673
0.831937
0.809862
0.889140
0.776589
0.865528
0.859487
0.781588
0.884364
0.806121
0.839503
0.885822
0.787230
0.883284
0.853252
0.820290
0.887056
0.813745
0.861273
0.875046
0.810976
0.894693
0.843067
0.857875
0.889977
0.838292
0.861258
0.843823
0.892504
0.901993
0.877044
0.907003
0.881720
0.865981
0.923033
0.852355
0.886987
0.917350
0.849816
0.924081
0.887909
0.862219
0.929722
0.845272
0.905994
0.893138
0.815199
0.924897
0.855454
0.866197
0.923057
0.833120
0.933858
0.892591
0.852659
0.939479
0.840810
0.907179
0.918876
0.820637
0.936228
0.850798
0.857600
0.933100
0.809761
0.921944
0.888424
0.802384
0.940414
0.835982
0.886267
0.932969
0.807507
0.935078
0.879042
0.840650
0.922301
0.809267
0.911022
0.916545
0.804528
0.941771
0.841513
0.867668
0.938643
0.809961
0.934671
0.898794
0.826707
0.946944
0.829668
0.897217
0.934154
0.808806
0.944333
0.871552
0.832281
0.949791
0.812819
0.923435
0.908158
0.824481
0.951039
0.844112
0.886693
0.946248
0.808986
0.947182
0.890013
0.840320
0.961214
0.831912
0.913330
0.930367
0.807959
0.942482
0.859443
0.865232
0.939971
0.811330
0.921911
0.900308
0.826391
0.938465
0.829369
0.891758
0.928116
0.811765
0.927773
0.874074
0.843607
0.929225
0.817264
0.901815
0.904179
0.815848
0.921208
0.847413
0.868414
0.924290
0.831205
0.913567
0.895011
0.853692
0.922364
0.850922
0.890168
0.908362
0.845408
0.924147
0.875642
0.878416
0.918491
0.882526
0.895168
0.911986
0.923525
0.896916
0.932532
0.895822
0.892012
0.941606
0.864694
0.914109
0.940550
0.870456
0.950535
0.912525
0.897177
0.952743
0.854143
0.926357
0.909783
0.843114
0.937982
0.859073
0.900901
0.944256
0.840907
0.945630
0.880342
0.879278
0.963215
0.854222
0.928341
0.934532
0.840469
0.964803
0.879789
0.896886
0.961322
0.830509
0.946180
0.915252
0.844493
0.953173
0.843996
0.914182
0.943919
0.820679
0.951376
0.880769
0.864616
0.955874
0.823049
0.937641
0.926569
0.814984
0.950216
0.860526
0.902360
0.961410
0.822492
0.953404
0.906740
0.833737
0.958695
0.837770
0.935324
0.966662
0.827438
0.966533
0.872723
0.875591
0.949428
0.810572
0.950147
0.924529
0.846796
0.960058
0.851043
0.919368
0.965558
0.828059
0.964984
0.909375
0.858662
0.974723
0.834963
0.939123
0.938554
0.836254
0.980797
0.870691
0.898301
0.970386
0.830037
0.962133
0.924769
0.856142
0.970871
0.847103
0.921380
0.949715
0.828823
0.963308
0.888647
0.877921
0.962955
0.831977
0.936854
0.925572
0.836636
0.947939
0.847296
0.894412
0.942963
0.820837
0.935240
0.890503
0.847208
0.939671
0.829517
0.908965
0.921498
0.834030
0.941750
0.876549
0.887480
0.942313
0.842669
0.920808
0.912082
0.857275
0.934701
0.878099
0.911370
0.939847
0.867523
0.943455
0.901758
0.890242
0.912493
0.901910
0.917493
0.928142
0.904040
0.941504
0.897941
0.900279
0.947093
0.867237
0.929138
0.945848
0.879033
0.963007
0.906993
0.903153
0.949260
0.852202
0.931117
0.903466
0.862700
0.953697
0.864856
0.918753
0.949017
0.847402
0.959136
0.893420
0.888889
0.966189
0.845007
0.943761
0.914404
0.828935
0.974632
0.879493
0.919313
0.971878
0.844834
0.964050
0.916906
0.859982
0.935130
0.842865
0.928260
0.942805
0.826349
0.960076
0.874596
0.879130
0.962332
0.824871
0.951025
0.923840
0.829944
0.964761
0.846918
0.916868
0.952903
0.816670
0.965127
0.899279
0.868808
0.955264
0.820756
0.950710
0.959479
0.835552
0.981857
0.871153
0.906563
0.978535
0.829415
0.966537
0.922101
0.839635
0.973138
0.852798
0.929841
0.964099
0.825116
0.974167
0.895765
0.871087
0.974613
0.827459
0.960954
0.943911
0.842459
0.976925
0.861308
0.922253
0.985526
0.838488
0.970644
0.926594
0.874487
0.990876
0.848802
0.941236
0.953868
0.831566
0.979805
0.882428
0.894625
0.975838
0.833193
0.962351
0.934693
0.849978
0.972348
0.856045
0.918978
0.955287
0.824696
0.950672
0.891161
0.866717
0.964309
0.834484
0.941823
0.939871
0.840367
0.965073
0.870390
0.902031
0.956051
0.835422
0.945480
0.908135
0.853371
0.949748
0.847803
0.919952
0.943238
0.848611
0.954634
0.887278
0.885819
0.939855
0.846640
0.921494
0.929724
0.867307
0.950022
0.886476
0.909877
0.943673
0.868781
0.925869
0.893751
0.893565
0.915868
0.905617
0.916703
0.894468
0.933119
0.883642
0.893347
0.932740
0.861802
0.930429
0.931900
0.872047
0.959539
0.885485
0.895010
0.930098
0.832595
0.917490
0.892501
0.863348
0.948304
0.851479
0.919235
0.934624
0.836493
0.950856
0.871829
0.874413
0.949792
0.833944
0.942933
0.919505
0.850313
0.968498
0.865179
0.910662
0.951841
0.828185
0.963989
0.924066
0.860861
0.957415
0.829630
0.930906
0.933822
0.823564
0.954899
0.856829
0.883128
0.952474
0.812012
0.944526
0.908098
0.834031
0.957404
0.833344
0.920203
0.944025
0.808309
0.952719
0.880299
0.866977
0.965251
0.819408
0.948995
0.932428
0.809019
0.960680
0.845553
0.907959
0.962363
0.809512
0.966248
0.905125
0.857321
0.955908
0.812131
0.929997
0.962646
0.814865
0.968830
0.856677
0.874378
0.956063
0.805429
0.953143
0.922897
0.819545
0.965678
0.843426
0.914488
0.957418
0.807509
0.958960
0.894184
0.854715
0.970875
0.819138
0.945533
0.941412
0.808499
0.957067
0.840647
0.886189
0.968792
0.818088
0.962686
0.917755
0.839669
0.968595
0.830592
0.926410
0.949028
0.814881
0.975981
0.886479
0.878806
0.967361
0.821637
0.953902
0.935859
0.833887
0.960230
0.842418
0.905769
0.953273
0.816417
0.949576
0.893968
0.851466
0.959518
0.830168
0.923676
0.931431
0.822897
0.953316
0.864181
0.881695
0.942661
0.817348
0.933449
0.903040
0.834768
0.937752
0.836769
0.901426
0.937114
0.824823
0.934429
0.871536
0.865183
0.932900
0.833166
0.904372
0.916869
0.848706
0.928310
0.869251
0.887999
0.920838
0.852644
0.905132
0.873216
0.870898
0.879449
0.874314
0.887154
0.863860
0.904523
0.852807
0.867861
0.900432
0.836380
0.914530
0.902200
0.844880
0.925828
0.845021
0.869053
0.890009
0.794232
0.900137
0.859404
0.845391
0.922444
0.819168
0.899643
0.899026
0.806282
0.921713
0.839565
0.858747
0.921940
0.806280
0.924745
0.890509
0.823059
0.931396
0.819611
0.889172
0.916417
0.796986
0.930676
0.859828
0.838025
0.929134
0.793730
0.911131
0.932815
0.831438
0.934088
0.825149
0.872766
0.927294
0.787826
0.926281
0.876026
0.817198
0.957473
0.794843
0.896945
0.910225
0.779818
0.925895
0.830425
0.839686
0.929648
0.780089
0.923321
0.894130
0.798215
0.934304
0.794411
0.887944
0.919799
0.774415
0.938734
0.860827
0.823576
0.941680
0.790194
0.907593
0.903029
0.776035
0.926905
0.814603
0.863007
0.935441
0.777285
0.926002
0.881096
0.804454
0.935310
0.781940
0.895385
0.926180
0.779138
0.941258
0.848030
0.837853
0.939216
0.780991
0.925678
0.905119
0.789861
0.941024
0.814665
0.869929
0.926904
0.768423
0.918315
0.856530
0.826990
0.927822
0.775170
0.903695
0.912403
0.798046
0.954375
0.840839
0.863778
0.950017
0.795501
0.936576
0.901595
0.807927
0.944865
0.811713
0.887607
0.919073
0.774994
0.927687
0.846442
0.821637
0.917625
0.770429
0.906171
0.899245
0.785125
0.922783
0.811115
0.855716
0.915400
0.773884
0.910077
0.862614
0.804767
0.922016
0.794777
0.883733
0.899177
0.781573
0.917393
0.832490
0.837643
0.919481
0.787856
0.899969
0.878214
0.792127
0.902366
0.803018
0.853653
0.897269
0.788763
0.899810
0.839476
0.833593
0.900392
0.803828
0.864081
0.872526
0.806893
0.886455
0.833646
0.838956
0.877360
0.809516
0.881372
0.849055
0.841330
0.853613
0.822572
0.837538
0.811809
0.855397
0.799066
0.823293
0.847728
0.791711
0.866654
0.847010
0.797787
0.873670
0.785277
0.823527
0.844166
0.751897
0.857468
0.805663
0.806718
0.875412
0.766832
0.857201
0.844173
0.757520
0.868459
0.785488
0.823650
0.875838
0.756639
0.890174
0.827358
0.778964
0.878974
0.759005
0.847992
0.859055
0.745046
0.881658
0.794574
0.800371
0.875075
0.742662
0.870349
0.849747
0.761871
0.883371
0.765796
0.833091
0.873449
0.735561
0.881046
0.817953
0.776411
0.884972
0.738098
0.857131
0.861585
0.739710
0.880509
0.770344
0.806844
0.875424
0.724925
0.868615
0.827126
0.756113
0.888265
0.751968
0.850681
0.868953
0.716325
0.872475
0.788105
0.780122
0.878114
0.721562
0.870144
0.846887
0.740791
0.880055
0.753602
0.819123
0.873999
0.704570
0.883661
0.816938
0.770671
0.891561
0.729396
0.853120
0.848372
0.709019
0.871101
0.771204
0.794444
0.881358
0.718913
0.877835
0.844575
0.744741
0.894719
0.747470
0.841918
0.880818
0.721924
0.884391
0.804553
0.772033
0.887349
0.723792
0.864989
0.854672
0.721317
0.867695
0.747600
0.798083
0.896523
0.729499
0.874474
0.823936
0.769775
0.901347
0.749468
0.858742
0.877976
0.733096
0.900223
0.795860
0.796905
0.895055
0.736131
0.878806
0.854627
0.756248
0.904221
0.773132
0.833676
0.879105
0.727944
0.879967
0.807767
0.766683
0.889561
0.742993
0.861095
0.865214
0.741342
0.887571
0.781914
0.807583
0.879251
0.732279
0.867937
0.829250
0.755393
0.874383
0.748833
0.830692
0.854428
0.728942
0.867738
0.798626
0.780784
0.871460
0.735313
0.853783
0.841736
0.747660
0.864981
0.768229
0.806760
0.850845
0.735869
0.849603
0.785161
0.766825
0.846147
0.746126
0.806473
0.827637
0.750104
0.838651
0.783537
0.782128
0.836716
0.770321
0.829604
0.799177
0.786895
0.813606
0.794179
0.749790
0.766388
0.738332
0.784262
0.726744
0.756400
0.783660
0.730498
0.799297
0.770007
0.729534
0.799670
0.704754
0.777552
0.773266
0.690337
0.791493
0.728334
0.746607
0.806622
0.694917
0.793675
0.763523
0.701075
0.806153
0.710311
0.768742
0.810015
0.692106
0.809513
0.745019
0.720259
0.807415
0.680163
0.785156
0.780502
0.674806
0.810945
0.712588
0.741783
0.806419
0.665533
0.798430
0.771998
0.695888
0.811657
0.686126
0.775480
0.800728
0.666736
0.813016
0.728883
0.717208
0.812722
0.663990
0.797965
0.792538
0.682379
0.815801
0.692734
0.754265
0.806684
0.656698
0.808286
0.748938
0.691357
0.822154
0.666674
0.782788
0.795975
0.656919
0.814813
0.703971
0.717740
0.799136
0.639084
0.797323
0.767368
0.667567
0.808245
0.681853
0.766483
0.785119
0.640849
0.802209
0.722711
0.690742
0.807613
0.648120
0.791694
0.786877
0.656105
0.807504
0.684951
0.728061
0.797335
0.631475
0.813597
0.753958
0.675011
0.818977
0.658127
0.780696
0.800573
0.642412
0.812271
0.714240
0.714960
0.818644
0.649467
0.806666
0.782078
0.664135
0.818082
0.676298
0.754798
0.803234
0.630330
0.805358
0.733199
0.660586
0.811838
0.644615
0.782763
0.786754
0.638964
0.799527
0.693837
0.732082
0.816129
0.651080
0.809680
0.767900
0.681126
0.830697
0.680446
0.784889
0.808821
0.652551
0.810599
0.717853
0.700408
0.815402
0.654345
0.793375
0.780560
0.663070
0.813074
0.685266
0.737410
0.796213
0.636992
0.798401
0.739901
0.675180
0.805126
0.658410
0.769888
0.783905
0.646922
0.803916
0.703104
0.708322
0.796092
0.644854
0.778991
0.751361
0.664317
0.794886
0.670420
0.743307
0.779976
0.645713
0.789024
0.719158
0.690481
0.792172
0.661748
0.763796
0.760131
0.664735
0.797344
0.703511
0.722825
0.778428
0.659157
0.774972
0.717963
0.677075
0.778184
0.674600
0.734697
0.761123
0.686825
0.769820
0.738749
0.742597
0.782456
0.706018
0.773600
0.750436
0.723164
0.777448
0.735006
0.751159
0.755052
0.655593
0.673201
0.642954
0.690961
0.633969
0.668162
0.695127
0.645503
0.704703
0.670681
0.638868
0.701516
0.614793
0.695129
0.678925
0.604881
0.702765
0.628561
0.663900
0.715007
0.602540
0.708285
0.673328
0.621456
0.720552
0.614399
0.694307
0.707333
0.591569
0.717301
0.642970
0.635736
0.711788
0.574564
0.692381
0.688360
0.593135
0.717340
0.610002
0.661819
0.713915
0.575357
0.715898
0.660350
0.611041
0.723170
0.586630
0.694700
0.707692
0.579521
0.723717
0.623597
0.638286
0.718351
0.568415
0.712511
0.685911
0.591007
0.727262
0.591595
0.676235
0.713678
0.564580
0.722619
0.644411
0.615450
0.725950
0.565731
0.701047
0.699065
0.568479
0.721532
0.598213
0.649544
0.716529
0.558073
0.703617
0.657095
0.576708
0.712902
0.567662
0.682564
0.712878
0.560396
0.724857
0.609886
0.608645
0.713934
0.546334
0.700661
0.678419
0.564629
0.714494
0.586802
0.663595
0.715149
0.539976
0.704051
0.632811
0.587239
0.714459
0.557713
0.697887
0.695356
0.548036
0.712682
0.596722
0.627025
0.710898
0.538695
0.703441
0.672429
0.573379
0.726151
0.565916
0.677614
0.711745
0.541955
0.718148
0.627142
0.609039
0.728593
0.555151
0.711699
0.697635
0.560045
0.724098
0.587072
0.656738
0.700658
0.520788
0.704755
0.643308
0.576775
0.715644
0.547586
0.679784
0.696765
0.531635
0.703342
0.604511
0.620285
0.718755
0.547076
0.706699
0.676364
0.566440
0.725516
0.584605
0.683740
0.724607
0.559521
0.734409
0.652460
0.587037
0.722771
0.560278
0.697036
0.695422
0.560620
0.716587
0.599668
0.640886
0.716408
0.550387
0.709912
0.663127
0.571169
0.708958
0.562018
0.664924
0.691338
0.544145
0.713513
0.621828
0.596159
0.697568
0.544059
0.672431
0.656565
0.556930
0.697579
0.576050
0.636944
0.693882
0.550556
0.694127
0.632082
0.588162
0.698167
0.563308
0.665261
0.674873
0.557643
0.701853
0.610207
0.618482
0.687023