# vtk DataFile Version 2.0
Unstructured Grid Example
ASCII
DATASET UNSTRUCTURED_GRID
POINTS 749 float
-0.021924 0.014719 -0.002359 
0.479887 -0.011610 -0.004141 
0.207204 0.689937 0.000449 
0.707208 0.703372 0.001544 
0.107564 0.683969 0.001000 
0.097988 0.983205 -0.005388 
1.621521 0.967918 0.003367 
1.580786 0.667947 -0.003908 
0.924820 0.522502 -0.000769 
0.999909 0.727087 -0.001747 
0.650793 0.493232 0.002808 
0.663590 0.545151 0.002442 
0.904813 0.570845 -0.000546 
1.048362 0.726995 -0.002086 
-0.021114 0.011896 0.177679 
0.480369 -0.014576 0.175690 
0.207662 0.692381 0.182071 
0.707511 0.704605 0.179725 
0.107344 0.687614 0.181433 
0.097386 0.986960 0.174664 
1.621705 0.963678 0.183178 
1.581094 0.663744 0.176280 
0.926328 0.521931 0.179172 
1.000361 0.726024 0.179960 
0.650964 0.493362 0.180421 
0.664174 0.545286 0.180550 
0.906188 0.570233 0.179463 
1.048922 0.725835 0.179832 
1.601320 0.814781 0.134780 
1.601248 0.816872 0.044734 
1.607233 0.860818 0.090830 
1.595322 0.770801 0.088663 
0.302589 0.841894 0.133576 
0.302816 0.840362 0.043356 
0.300997 0.885894 0.087567 
0.304502 0.796570 0.089380 
0.103333 0.007423 -0.002802 
0.229104 0.000561 -0.003284 
0.354696 -0.005443 -0.003733 
0.008219 0.100630 -0.001142 
0.038566 0.186299 0.000117 
0.068872 0.271527 0.001356 
0.098756 0.356193 0.002279 
0.127837 0.440036 0.002787 
0.155943 0.523383 0.002707 
0.182543 0.606604 0.001632 
0.157603 0.686004 0.000921 
0.102356 0.833489 -0.002174 
0.205165 0.986464 -0.004950 
0.312235 0.989534 -0.004473 
0.418413 0.992620 -0.003768 
0.524117 0.996781 -0.003041 
0.629824 1.002995 -0.002090 
0.736259 1.011145 -0.000840 
0.845087 1.019660 0.000623 
0.956364 1.025560 0.001903 
1.069282 1.026624 0.003029 
1.181851 1.021811 0.003039 
1.294456 1.012428 0.003780 
1.405253 0.998539 0.003797 
1.514039 0.983152 0.003596 
1.601170 0.817967 -0.000255 
0.856161 0.719662 -0.000813 
0.623110 0.406765 0.002569 
0.595269 0.321241 0.001888 
0.566480 0.236747 0.000492 
0.537407 0.153411 -0.001025 
0.508423 0.070639 -0.002621 
0.789018 0.506210 0.000673 
0.983949 0.626816 -0.001257 
0.950159 0.650091 -0.000955 
0.783091 0.556162 0.000646 
0.686340 0.623437 0.002436 
1.134345 0.724159 -0.003068 
1.221378 0.716940 -0.003495 
1.309457 0.706776 -0.003710 
1.398777 0.694140 -0.003756 
1.489329 0.680929 -0.003813 
0.104101 0.004681 0.177085 
0.229779 -0.002153 0.176510 
0.355234 -0.008372 0.176018 
0.009010 0.097846 0.178981 
0.039318 0.183597 0.180328 
0.069651 0.269005 0.181679 
0.099637 0.354148 0.182941 
0.128980 0.438757 0.183909 
0.157039 0.523369 0.184202 
0.183381 0.607764 0.183665 
0.157452 0.689710 0.181543 
0.101978 0.837214 0.177989 
0.204533 0.990090 0.175130 
0.311539 0.992723 0.175871 
0.417608 0.995221 0.176736 
0.523306 0.998866 0.177551 
0.629010 1.004506 0.178127 
0.735451 1.011922 0.178818 
0.844383 1.019576 0.179232 
0.955751 1.024611 0.179703 
1.068793 1.024829 0.180208 
1.181589 1.019177 0.181396 
1.294187 1.009137 0.181765 
1.405382 0.994804 0.182630 
1.514187 0.979065 0.183090 
1.601359 0.813734 0.179782 
0.856353 0.719655 0.180532 
0.623487 0.405928 0.180376 
0.595504 0.319689 0.179823 
0.566721 0.234535 0.179287 
0.537713 0.150602 0.178261 
0.508836 0.067716 0.176928 
0.790198 0.505623 0.180443 
0.984907 0.626098 0.178942 
0.951112 0.649391 0.179170 
0.784363 0.555500 0.180786 
0.686658 0.624516 0.179871 
1.134764 0.721751 0.179215 
1.221714 0.714133 0.178587 
1.309791 0.703313 0.177891 
1.398980 0.690312 0.177168 
1.489646 0.676780 0.176571 
-0.021545 0.013300 0.087643 
0.480093 -0.013178 0.085781 
0.207367 0.691027 0.091325 
0.707351 0.703671 0.090537 
0.107663 0.685564 0.091116 
0.097678 0.985047 0.084661 
1.621664 0.965721 0.093317 
1.580818 0.665712 0.086189 
0.925855 0.522131 0.089211 
1.000037 0.726317 0.089127 
0.650284 0.493074 0.091709 
0.663924 0.545112 0.091573 
0.905693 0.570660 0.089474 
1.048361 0.726263 0.088652 
1.597121 0.783335 0.120837 
1.597032 0.784797 0.057141 
1.605502 0.848419 0.058712 
1.605466 0.846961 0.122345 
0.301555 0.872237 0.055944 
0.304038 0.809046 0.057242 
0.303905 0.810109 0.120977 
0.301364 0.873332 0.119724 
1.508459 0.828233 0.134896 
1.415635 0.842039 0.134956 
1.322767 0.855134 0.135009 
1.229673 0.865951 0.134974 
1.136477 0.873668 0.135112 
1.043394 0.876829 0.135012 
0.950388 0.875546 0.135056 
0.857319 0.870553 0.134868 
0.764563 0.862902 0.134473 
0.672190 0.855339 0.134197 
0.580078 0.849649 0.134029 
0.487911 0.845983 0.133952 
0.395374 0.843627 0.133788 
1.514191 0.874113 0.090965 
1.420870 0.887981 0.090997 
1.327285 0.900961 0.090943 
1.232763 0.911298 0.090763 
1.138614 0.918790 0.090636 
1.044572 0.921980 0.090470 
0.950497 0.920637 0.090231 
0.856774 0.915515 0.089921 
0.763423 0.908237 0.089566 
0.670510 0.900806 0.089197 
0.578162 0.894950 0.088748 
0.485945 0.890719 0.088313 
0.393622 0.887946 0.087882 
1.508390 0.830304 0.044874 
1.415534 0.844010 0.045019 
1.322738 0.856872 0.045056 
1.229591 0.867409 0.045034 
1.136587 0.874773 0.044944 
1.043480 0.877577 0.045079 
0.950493 0.876002 0.044967 
0.857452 0.870596 0.044909 
0.764738 0.862554 0.045007 
0.672398 0.854676 0.044835 
0.580304 0.848718 0.044442 
0.488153 0.844841 0.044032 
0.395636 0.842329 0.043633 
1.502648 0.784138 0.088802 
1.410338 0.797914 0.089030 
1.318117 0.810858 0.089136 
1.226391 0.821605 0.089256 
1.134390 0.829221 0.089447 
1.042358 0.832128 0.089628 
0.950306 0.830613 0.089825 
0.858285 0.825475 0.089886 
0.765620 0.816849 0.089880 
0.673824 0.808579 0.089858 
0.581967 0.803282 0.089754 
0.489748 0.800011 0.089611 
0.397356 0.798008 0.089475 
1.615062 0.916631 0.132468 
1.587588 0.713053 0.127675 
1.587472 0.714913 0.046987 
1.614926 0.917963 0.052648 
1.592391 0.752011 0.018202 
1.592587 0.748749 0.158194 
1.609836 0.881879 0.020420 
1.610104 0.879722 0.161277 
1.597054 0.786236 0.031513 
1.597208 0.783554 0.146514 
1.605280 0.847517 0.031987 
1.605441 0.845515 0.148002 
1.609667 0.877615 0.122435 
1.592949 0.752536 0.119524 
1.592852 0.753973 0.056982 
1.609505 0.878097 0.057339 
1.589032 0.724977 0.087600 
1.613440 0.905610 0.091162 
0.347898 0.825310 0.116752 
1.554648 0.804315 0.117188 
0.718733 0.835849 0.112089 
0.811084 0.843971 0.112248 
0.903955 0.850626 0.112450 
0.626966 0.829008 0.111982 
1.181841 0.847823 0.112279 
0.442733 0.821806 0.111711 
0.996523 0.853930 0.112423 
0.534978 0.824602 0.111879 
1.089245 0.853086 0.112367 
1.274220 0.838513 0.112206 
1.366703 0.826625 0.112055 
1.459424 0.813087 0.111983 
0.337476 0.809346 0.101360 
1.563684 0.787440 0.101136 
0.346273 0.859569 0.116003 
1.559121 0.838816 0.117970 
0.810757 0.889437 0.112193 
0.718016 0.882001 0.111936 
0.904141 0.895682 0.112442 
0.625321 0.875215 0.111569 
0.997200 0.898828 0.112538 
0.533066 0.870365 0.111267 
0.440678 0.867008 0.110957 
1.184395 0.892409 0.112687 
1.090784 0.897921 0.112727 
1.278068 0.883670 0.112907 
1.371459 0.871610 0.112906 
1.464618 0.858105 0.112894 
0.334618 0.874668 0.100048 
1.572217 0.853198 0.102712 
0.302729 0.841250 0.088618 
0.303402 0.823788 0.096222 
0.303062 0.833613 0.070725 
0.302404 0.848523 0.106471 
0.302068 0.859027 0.081360 
1.554564 0.805579 0.061614 
0.348411 0.814147 0.071824 
0.718746 0.835484 0.067480 
0.811168 0.843815 0.067479 
0.903978 0.850821 0.067378 
0.627113 0.828579 0.067213 
1.089027 0.853864 0.067240 
0.535101 0.824132 0.066942 
0.996493 0.854269 0.067292 
1.181844 0.848422 0.067120 
0.442804 0.821239 0.066671 
1.274322 0.839379 0.067023 
1.366666 0.827529 0.066997 
1.459353 0.814109 0.066874 
1.563629 0.787980 0.076856 
0.336729 0.829234 0.055864 
0.346409 0.858690 0.060435 
1.560503 0.850304 0.073217 
0.718176 0.881712 0.067108 
0.810863 0.889352 0.067374 
0.904262 0.895815 0.067578 
0.625475 0.874869 0.066810 
1.184378 0.893170 0.067981 
0.997333 0.899137 0.067831 
1.090853 0.898410 0.067866 
0.533191 0.869819 0.066394 
0.440801 0.866419 0.065932 
1.277949 0.884366 0.068015 
1.371447 0.872533 0.068068 
1.464597 0.859112 0.068014 
0.334716 0.874301 0.075757 
1.569533 0.833499 0.057213 
0.427892 0.587774 0.002096 
0.347255 0.356823 0.001896 
0.386467 0.784710 -0.000498 
0.535881 0.711616 0.001096 
0.547524 0.549168 0.002487 
1.036723 0.876742 0.000057 
0.330439 0.672364 0.000974 
0.444975 0.464660 0.002474 
0.300753 0.488940 0.002407 
0.237920 0.189072 -0.000282 
0.621514 0.836666 -0.000081 
0.271413 0.764339 -0.000497 
0.438509 0.691693 0.001004 
1.175729 0.870568 -0.000027 
0.395227 0.201710 -0.000246 
1.367478 0.848711 -0.000039 
0.512870 0.834016 -0.000680 
0.504066 0.629535 0.001869 
0.478319 0.333048 0.001772 
0.600346 0.630808 0.002261 
0.322881 0.580715 0.002092 
0.234185 0.359923 0.001971 
0.769687 0.845221 0.000163 
0.552832 0.450327 0.002646 
1.097979 0.823230 -0.001119 
0.728427 0.528196 0.001457 
0.903042 0.929767 0.000517 
0.937392 0.805289 -0.000790 
0.842783 0.540967 0.000118 
0.320626 0.876948 -0.002356 
0.271362 0.630783 0.001352 
0.471630 0.520982 0.002550 
0.380969 0.504049 0.002386 
0.400678 0.878106 -0.002066 
0.603552 0.533690 0.002509 
1.020454 0.796760 -0.001185 
0.633305 0.746625 0.000759 
0.991082 0.675789 -0.001477 
0.159428 0.111048 -0.001390 
0.193553 0.784870 -0.001005 
1.272000 0.804518 -0.001570 
1.460129 0.779686 -0.001529 
0.173898 0.285044 0.001276 
0.330240 0.110981 -0.001792 
0.392968 0.640465 0.001571 
0.941308 0.595603 -0.000841 
0.215808 0.447831 0.002476 
0.483579 0.751840 0.000310 
0.272568 0.699067 0.000515 
0.367874 0.433377 0.002451 
0.200763 0.882239 -0.002915 
0.286603 0.288938 0.001069 
1.105017 0.938717 0.001423 
1.276137 0.906010 0.001283 
0.268955 0.557247 0.002162 
1.466991 0.892511 0.001305 
0.571570 0.907031 -0.001470 
0.446873 0.138378 -0.001312 
0.381489 0.712686 0.000625 
0.478869 0.238241 0.000413 
0.423588 0.058367 -0.002821 
0.293562 0.409760 0.002265 
0.690549 0.910347 -0.000638 
0.627077 0.582952 0.002417 
0.598247 0.478236 0.002727 
0.543319 0.372782 0.002318 
0.560422 0.776796 0.000227 
0.489407 0.571381 0.002321 
0.699625 0.797392 0.000289 
0.423611 0.381677 0.002169 
[...]
POINT_DATA 749
SCALARS u float 1
LOOKUP_TABLE default
0.053084
0.047233
0.024797
0.016231
0.035548
0.035545
0.077644
0.075234
0.049183
0.054348
0.021627
0.016877
0.042849
0.054312
0.048746
0.049712
0.022029
0.017649
0.028975
0.028692
0.084960
0.082210
0.049453
0.052111
0.020995
0.016985
0.042378
0.051774
0.070569
0.066381
0.069977
0.069166
0.017275
0.020372
0.018978
0.019177
0.046201
0.042368
0.042748
0.042724
0.032188
0.022014
0.013445
0.009443
0.013471
0.019446
0.031944
0.033677
0.029129
0.023157
0.017656
0.012576
0.013876
0.025987
0.040595
0.051343
0.054576
0.048783
0.041086
0.039960
0.054668
0.064184
0.041288
0.022039
0.024506
0.028343
0.033567
0.040284
0.023760
0.053831
0.050276
0.015354
0.016599
0.050917
0.042100
0.034753
0.038436
0.054446
0.043277
0.041312
0.043714
0.038187
0.027462
0.017195
0.010206
0.011451
0.016736
0.020625
0.025626
0.026217
0.022718
0.017632
0.013885
0.011847
0.016603
0.028201
0.040807
0.049360
0.050528
0.043544
0.036397
0.041070
0.060160
0.072667
0.041373
0.023278
0.027327
0.032399
0.037950
0.043755
0.025232
0.052520
0.048916
0.016069
0.016222
0.045718
0.036744
0.031452
0.040775
0.060072
0.050916
0.048543
0.023396
0.016488
0.032801
0.032130
0.081464
0.079037
0.049381
0.052723
0.020619
0.017032
0.042922
0.052756
0.070035
0.067138
0.067788
0.070657
0.019947
0.020085
0.018032
0.017717
0.043664
0.016168
0.010624
0.032015
0.047415
0.053730
0.051157
0.041155
0.025862
0.010917
0.003657
0.009404
0.013933
0.044180
0.019374
0.016838
0.033730
0.048004
0.054139
0.051343
0.041084
0.026574
0.011880
0.002640
0.009225
0.014826
0.039517
0.012252
0.014007
0.034918
0.049634
0.055231
0.052072
0.041243
0.025152
0.009568
0.004457
0.011589
0.016564
0.042798
0.016358
0.013584
0.033566
0.048582
0.054332
0.051288
0.041061
0.023877
0.008627
0.007635
0.012869
0.016681
0.076754
0.074789
0.071387
0.073192
0.066900
0.073181
0.067993
0.074498
0.065939
0.071259
0.066396
0.071847
0.072506
0.071312
0.068540
0.069581
0.072104
0.073744
0.016563
0.056977
0.016829
0.032991
0.046310
0.005068
0.040700
0.013420
0.052921
0.008212
0.051231
0.022114
0.003034
0.028993
0.017704
0.059767
0.016201
0.057376
0.033918
0.019060
0.046431
0.005784
0.052739
0.005271
0.011757
0.040118
0.050990
0.023208
0.007472
0.029874
0.017141
0.060467
0.018535
0.018317
0.019239
0.017871
0.018830
0.054455
0.018178
0.016085
0.032679
0.046703
0.004786
0.052794
0.009045
0.053600
0.041903
0.014476
0.023842
0.002589
0.026980
0.058705
0.018753
0.017966
0.055840
0.018473
0.033745
0.046703
0.005032
0.041640
0.053370
0.051980
0.006175
0.012936
0.024503
0.007277
0.027931
0.017896
0.057606
0.022824
0.011129
0.019704
0.017488
0.021816
0.056163
0.023484
0.020269
0.017253
0.019480
0.004457
0.023602
0.021212
0.046663
0.020527
0.004300
0.011436
0.021415
0.018127
0.018905
0.022211
0.004388
0.025640
0.021263
0.054049
0.014133
0.047654
0.051294
0.029814
0.021135
0.023168
0.022026
0.020567
0.017342
0.020978
0.055817
0.011543
0.053193
0.031701
0.027428
0.028394
0.028481
0.010895
0.029328
0.022972
0.048282
0.010266
0.017471
0.024009
0.016576
0.027822
0.008625
0.054018
0.029826
0.020313
0.028405
0.004555
0.029526
0.021803
0.021823
0.037594
0.011202
0.013269
0.018500
0.022138
0.020945
0.012135
0.022479
0.012900
0.016343
0.023629
0.013944
0.022329
0.031571
0.016025
0.030434
0.055303
0.025224
0.046669
0.017682
0.033103
0.021016
0.022039
0.053684
0.041559
0.022220
0.020319
0.021634
0.022571
0.012103
0.020453
0.025917
0.019675
0.052427
0.019842
0.053390
0.016430
0.021966
0.016216
0.021589
0.053988
0.023229
0.036950
0.015790
0.044474
0.021084
0.023960
0.022109
0.053684
0.020267
0.006071
0.016605
0.024179
0.019586
0.007480
0.053824
0.053854
0.016022
0.034845
0.027756
0.020869
0.031309
0.006789
0.022122
0.014414
0.015293
0.015591
0.021304
0.053459
0.020790
0.021064
0.018526
0.018789
0.006172
0.018128
0.018884
0.041364
0.023746
0.004079
0.007618
0.020288
0.021055
0.018156
0.021892
0.007514
0.026864
0.022040
0.050068
0.015593
0.046620
0.049888
0.030156
0.014911
0.022180
0.021867
0.021032
0.011749
0.020439
0.053304
0.011191
0.051344
0.029360
0.020773
0.021879
0.035629
0.008140
0.030197
0.021449
0.047504
0.013448
0.014384
0.020486
0.018037
0.020687
0.011307
0.049778
0.023336
0.020771
0.035260
0.003831
0.032946
0.018782
0.025816
0.039878
0.013984
0.016090
0.018209
0.022081
0.022776
0.009773
0.021890
0.014683
0.018445
0.020156
0.017764
0.020994
0.024469
0.015887
0.029602
0.052704
0.019970
0.041465
0.017462
0.033950
0.020288
0.022137
0.061227
0.041297
0.018461
0.018415
0.019425
0.022125
0.007599
0.019852
0.027053
0.018436
0.050710
0.021151
0.061009
0.018800
0.021911
0.011729
0.025168
0.051666
0.021912
0.037233
0.016795
0.038940
0.015538
0.017274
0.021932
0.051733
0.014669
0.006358
0.015554
0.017733
0.016113
0.010848
0.050054
0.050039
0.018380
0.031154
0.022151
0.021247
0.024152
0.004220
0.028132
0.039084
0.023318
0.032651
0.044768
0.021890
0.021672
0.043997
0.021296
0.035203
0.035082
0.053395
0.050978
0.051295
0.048852
0.051789
0.052515
0.029448
0.029714
0.048399
0.048008
0.040052
0.015693
0.016209
0.016111
0.022683
0.012224
0.011793
0.044526
0.034522
0.049343
0.034827
0.049534
0.065848
0.064448
0.050979
0.022731
0.017803
0.013286
0.012358
0.020668
0.034048
0.046002
0.052066
0.050594
0.042581
0.037205
0.046909
0.064857
0.027510
0.030960
0.068833
0.042724
0.042062
0.044620
0.046648
0.035861
0.015017
0.017263
0.010256
0.024480
0.012783
0.021596
0.043532
0.045598
0.022135
0.025555
0.028368
0.029498
0.032300
0.032094
0.029406
0.031691
0.029207
0.030090
0.050830
0.022133
0.022364
0.022193
0.022052
0.021746
0.020959
0.021635
0.020956
0.021966
0.019936
0.018364
0.019683
0.019129
0.018777
0.020714
0.020419
0.021686
0.019549
0.021891
0.022605
0.019313
0.021902
0.014591
0.017433
0.018613
0.021092
0.030082
0.012235
0.012604
0.014863
0.015647
0.020434
0.021084
0.023067
0.016848
0.017939
0.016212
0.014901
0.021302
0.010189
0.010393
0.013360
0.016367
0.012263
0.024096
0.024392
0.026903
0.020641
0.022798
0.021232
0.016930
0.017257
0.019541
0.020720
0.021525
0.021361
0.021783
0.021544
0.020656
0.019308
0.020359
0.018751
0.021400
0.021428
0.016658
0.020345
0.019208
0.020677
0.049190
0.020919
0.020597
0.041167
0.015551
0.021703
0.019700
0.024499
0.026785
0.020166
0.011143
0.011230
0.030969
0.038321
0.035781
0.039194
0.022028
0.009058
0.009054
0.023253
0.018230
0.042731
0.020828
0.017116
0.027292
0.019486
0.020521
0.024425
0.053561
0.036473
0.023531
0.024463
0.025444
0.038913
0.036012
0.020554
0.019420
0.017872
0.022898
0.020367
0.019900
0.019143
0.032313
0.022825
0.020240
0.021322
0.020111
0.021496
0.021833
0.022393
0.020687
0.022653
0.024451
0.026463
0.022629
0.021751
0.019279
0.021888
0.023803
0.025968
0.024048
0.023724
0.022385
0.022092
0.021908
0.020569
0.023183
0.020840
0.019236
0.021494
0.018883
0.018932
0.020710
0.021796
0.018993
0.020824
0.018953
0.063214
