# vtk DataFile Version 2.0
Unstructured Grid Example
ASCII
DATASET UNSTRUCTURED_GRID
POINTS 749 float
0.015146 -0.010169 0.001630 
0.513895 0.008021 0.002861 
0.195023 0.706952 -0.000310 
0.695020 0.697671 -0.001067 
0.094774 0.711075 -0.000691 
0.101390 1.011603 0.003723 
1.585132 1.022164 -0.002326 
1.613274 0.722144 0.002700 
0.908216 0.484454 0.000531 
1.000063 0.681287 0.001207 
0.637374 0.504676 -0.001940 
0.652688 0.553350 -0.001687 
0.896675 0.535599 0.000377 
1.051132 0.681350 0.001441 
0.014587 -0.008219 0.181603 
0.513562 0.010070 0.182978 
0.194706 0.705264 0.178569 
0.694811 0.696819 0.180190 
0.094926 0.708557 0.179010 
0.101806 1.009009 0.183687 
1.585005 1.025094 0.177804 
1.613062 0.725048 0.182570 
0.907174 0.484848 0.180572 
0.999751 0.682021 0.180028 
0.637257 0.504586 0.179709 
0.652285 0.553256 0.179620 
0.895725 0.536022 0.180371 
1.050745 0.682152 0.180116 
1.599088 0.874332 0.135152 
1.599138 0.872887 0.045184 
1.595003 0.918615 0.089427 
1.603232 0.828627 0.090923 
0.298211 0.855600 0.135984 
0.298055 0.856658 0.046136 
0.299311 0.901291 0.091681 
0.296890 0.810824 0.090428 
0.139969 -0.005128 0.001936 
0.264436 -0.000387 0.002269 
0.389027 0.003760 0.002579 
0.036593 0.078429 0.000789 
0.057899 0.167194 -0.000081 
0.079233 0.256263 -0.000937 
0.100859 0.345722 -0.001575 
0.123040 0.435748 -0.001925 
0.145894 0.526117 -0.001870 
0.169789 0.616573 -0.001128 
0.144748 0.709669 -0.000636 
0.098372 0.861407 0.001502 
0.208509 1.009351 0.003420 
0.315702 1.007231 0.003090 
0.423512 1.005099 0.002603 
0.531649 1.002224 0.002101 
0.639783 0.997931 0.001444 
0.747416 0.992301 0.000580 
0.853394 0.986418 -0.000431 
0.957681 0.982342 -0.001315 
1.060834 0.981607 -0.002093 
1.164228 0.984932 -0.002099 
1.267598 0.991414 -0.002611 
1.372216 1.001009 -0.002623 
1.478223 1.011639 -0.002484 
1.599192 0.872130 0.000176 
0.845744 0.686416 0.000561 
0.616241 0.423507 -0.001775 
0.595217 0.341687 -0.001305 
0.574847 0.259156 -0.000340 
0.554674 0.175825 0.000708 
0.534440 0.092103 0.001811 
0.771958 0.495710 -0.000465 
0.981499 0.581474 0.000869 
0.949890 0.607666 0.000660 
0.775449 0.545743 -0.000446 
0.673204 0.626080 -0.001683 
1.146725 0.683310 0.002119 
1.241592 0.688297 0.002415 
1.335738 0.695318 0.002563 
1.429026 0.704048 0.002595 
1.521463 0.713175 0.002634 
0.139438 -0.003234 0.182014 
0.263970 0.001487 0.182411 
0.388656 0.005784 0.182751 
0.036047 0.080352 0.180704 
0.057380 0.169061 0.179773 
0.078696 0.258006 0.178840 
0.100251 0.347135 0.177968 
0.122250 0.436631 0.177299 
0.145137 0.526127 0.177097 
0.169210 0.615772 0.177468 
0.144852 0.707109 0.178934 
0.098634 0.858834 0.181390 
0.208946 1.006847 0.183364 
0.316183 1.005028 0.182852 
0.424068 1.003302 0.182255 
0.532209 1.000783 0.181692 
0.640346 0.996887 0.181294 
0.747974 0.991764 0.180816 
0.853881 0.986476 0.180531 
0.958104 0.982997 0.180205 
1.061171 0.982847 0.179856 
1.164409 0.986751 0.179035 
1.267783 0.993688 0.178781 
1.372127 1.003590 0.178183 
1.478121 1.014463 0.177865 
1.599061 0.875055 0.180150 
0.845611 0.686421 0.179633 
0.615981 0.424085 0.179740 
0.595054 0.342760 0.180122 
0.574681 0.260684 0.180492 
0.554463 0.177765 0.181201 
0.534154 0.094123 0.182122 
0.771143 0.496116 0.179694 
0.980837 0.581970 0.180731 
0.949232 0.608149 0.180574 
0.774570 0.546201 0.179457 
0.672985 0.625334 0.180089 
1.146435 0.684973 0.180542 
1.241361 0.690236 0.180976 
1.335507 0.697711 0.181457 
1.428886 0.706693 0.181956 
1.521243 0.716042 0.182369 
0.014885 -0.009188 0.091628 
0.513753 0.009105 0.092915 
0.194911 0.706199 0.089085 
0.694921 0.697464 0.089629 
0.094706 0.709973 0.089229 
0.101604 1.010331 0.093689 
1.585033 1.023682 0.087709 
1.613252 0.723688 0.092633 
0.907501 0.484711 0.090545 
0.999974 0.681818 0.090603 
0.637726 0.504785 0.088820 
0.652458 0.553377 0.088913 
0.896067 0.535727 0.090363 
1.051132 0.681856 0.090931 
1.601989 0.842253 0.122499 
1.602050 0.841243 0.058898 
1.596199 0.904895 0.057813 
1.596224 0.905902 0.121457 
0.298926 0.888440 0.059725 
0.297211 0.824491 0.058828 
0.297302 0.823756 0.122402 
0.299057 0.887684 0.123268 
1.506234 0.865038 0.135072 
1.413354 0.855500 0.135030 
1.320504 0.846453 0.134994 
1.227810 0.838980 0.135018 
1.135187 0.833648 0.134923 
1.042486 0.831465 0.134992 
0.949732 0.832351 0.134961 
0.857021 0.835801 0.135091 
0.764094 0.841086 0.135364 
0.670903 0.846312 0.135555 
0.577531 0.850243 0.135671 
0.484197 0.852775 0.135724 
0.391118 0.854403 0.135838 
1.502274 0.909430 0.089333 
1.409737 0.899849 0.089311 
1.317383 0.890882 0.089349 
1.225676 0.883740 0.089473 
1.133711 0.878564 0.089561 
1.041673 0.876360 0.089675 
0.949656 0.877289 0.089840 
0.857398 0.880827 0.090054 
0.764882 0.885855 0.090300 
0.672063 0.890989 0.090555 
0.578854 0.895034 0.090865 
0.485555 0.897958 0.091166 
0.392329 0.899873 0.091463 
1.506281 0.863608 0.045087 
1.413423 0.854138 0.044987 
1.320524 0.845253 0.044961 
1.227867 0.837973 0.044977 
1.135111 0.832885 0.045039 
1.042427 0.830948 0.044945 
0.949660 0.832036 0.045023 
0.856929 0.835771 0.045063 
0.763974 0.841327 0.044995 
0.670759 0.846769 0.045114 
0.577375 0.850886 0.045386 
0.484030 0.853564 0.045668 
0.390938 0.855300 0.045944 
1.510249 0.819413 0.090827 
1.417013 0.809896 0.090670 
1.323717 0.800953 0.090597 
1.230078 0.793528 0.090514 
1.136629 0.788266 0.090382 
1.043202 0.786258 0.090257 
0.949789 0.787305 0.090121 
0.856354 0.790855 0.090079 
0.763364 0.796814 0.090083 
0.669774 0.802528 0.090098 
0.576226 0.806187 0.090170 
0.482927 0.808446 0.090268 
0.389749 0.809830 0.090363 
1.589594 0.976125 0.128829 
1.608575 0.772454 0.132141 
1.608655 0.771169 0.051547 
1.589688 0.974265 0.048970 
1.605257 0.806935 0.021294 
1.605122 0.809189 0.161197 
1.593205 0.936793 0.018252 
1.593019 0.940228 0.159066 
1.602035 0.841670 0.033209 
1.601929 0.843523 0.148154 
1.596352 0.902865 0.031187 
1.596241 0.905480 0.147126 
1.593321 0.936584 0.120314 
1.604871 0.811492 0.122465 
1.604938 0.810499 0.059949 
1.593433 0.934578 0.055270 
1.607577 0.782832 0.091658 
1.590715 0.963501 0.087940 
0.342023 0.837890 0.118439 
1.556218 0.852395 0.118138 
0.717252 0.821732 0.112784 
0.810459 0.816121 0.112674 
0.903307 0.811523 0.112535 
0.623642 0.826458 0.112858 
1.182351 0.813459 0.112653 
0.436904 0.831434 0.113045 
0.996363 0.809240 0.112553 
0.530184 0.829502 0.112929 
1.089314 0.809824 0.112592 
1.275539 0.819891 0.112703 
1.368655 0.828104 0.112807 
1.461606 0.837458 0.112857 
0.330489 0.822499 0.102654 
1.568709 0.837633 0.102808 
0.343146 0.872557 0.118957 
1.553127 0.886894 0.117598 
0.810685 0.860799 0.112712 
0.717748 0.865936 0.112890 
0.903178 0.856484 0.112540 
0.624779 0.870624 0.113143 
0.995896 0.854311 0.112474 
0.531505 0.873975 0.113352 
0.438324 0.876294 0.113566 
1.180587 0.858746 0.112371 
1.088251 0.854938 0.112343 
1.272880 0.864783 0.112219 
1.365369 0.873115 0.112219 
1.458018 0.882445 0.112228 
0.332464 0.888545 0.103560 
1.562814 0.903378 0.101719 
0.298114 0.855981 0.091208 
0.297650 0.838012 0.098183 
0.297885 0.848822 0.073140 
0.298339 0.862795 0.109214 
0.298571 0.874199 0.084591 
1.556276 0.851521 0.062690 
0.341669 0.827848 0.073390 
0.717243 0.821984 0.067514 
0.810401 0.816229 0.067515 
0.903291 0.811388 0.067584 
0.623540 0.826755 0.067699 
1.089464 0.809286 0.067680 
0.530099 0.829827 0.067885 
0.996384 0.809006 0.067644 
1.182349 0.813046 0.067763 
0.436855 0.831826 0.068073 
1.275469 0.819293 0.067829 
1.368680 0.827480 0.067848 
1.461655 0.836752 0.067933 
1.568747 0.837260 0.078579 
0.331006 0.843845 0.057996 
0.343052 0.873164 0.063504 
1.552172 0.896711 0.072427 
0.717637 0.866136 0.067771 
0.810612 0.860857 0.067587 
0.903095 0.856393 0.067446 
0.624672 0.870863 0.067977 
1.180598 0.858220 0.067167 
0.995804 0.854097 0.067271 
1.088203 0.854599 0.067247 
0.531419 0.874352 0.068264 
0.438239 0.876701 0.068583 
1.272963 0.864302 0.067144 
1.365377 0.872477 0.067108 
1.458032 0.881749 0.067145 
0.332396 0.888799 0.079338 
1.564668 0.881902 0.057064 
0.413836 0.600476 -0.001448 
0.345399 0.365461 -0.001310 
0.378147 0.799096 0.000344 
0.524272 0.720553 -0.000757 
0.534092 0.561056 -0.001718 
1.035656 0.829326 -0.000040 
0.317140 0.686982 -0.000673 
0.434531 0.477560 -0.001709 
0.290306 0.498245 -0.001663 
0.254362 0.188809 0.000194 
0.617991 0.835347 0.000056 
0.262151 0.781967 0.000344 
0.425947 0.704350 -0.000694 
1.174078 0.831196 0.000018 
0.408308 0.213077 0.000170 
1.366106 0.845349 0.000027 
0.508039 0.842299 0.000470 
0.490245 0.640762 -0.001291 
0.477200 0.348018 -0.001224 
0.586749 0.638249 -0.001562 
0.309099 0.592937 -0.001445 
0.233769 0.361489 -0.001362 
0.768034 0.823634 -0.000113 
0.542680 0.464446 -0.001828 
1.100483 0.777695 0.000773 
0.716786 0.527265 -0.001007 
0.903283 0.889534 -0.000357 
0.935805 0.762022 0.000546 
0.830863 0.518792 -0.000081 
0.317963 0.894141 0.001628 
0.257413 0.644310 -0.000934 
0.458816 0.533756 -0.001762 
0.369113 0.516083 -0.001648 
0.398102 0.892093 0.001427 
0.590696 0.545117 -0.001733 
1.021564 0.749680 0.000819 
0.623697 0.747658 -0.000524 
0.991163 0.630939 0.001020 
0.185066 0.103712 0.000960 
0.186354 0.806819 0.000695 
1.279539 0.781912 0.001085 
1.470678 0.801145 0.001056 
0.181510 0.280348 -0.000882 
0.353813 0.117947 0.001238 
0.379020 0.653684 -0.001085 
0.935323 0.555297 0.000581 
0.209037 0.451264 -0.001711 
0.473685 0.762772 -0.000214 
0.260144 0.715065 -0.000356 
0.359878 0.444093 -0.001693 
0.198747 0.905123 0.002014 
0.292277 0.293131 -0.000739 
1.099185 0.893538 -0.000983 
1.267499 0.882450 -0.000886 
0.255911 0.567771 -0.001493 
1.453399 0.912153 -0.000902 
0.572548 0.909799 0.001016 
0.466187 0.153990 0.000906 
0.369701 0.726790 -0.000432 
0.487222 0.254654 -0.000286 
0.451456 0.072805 0.001949 
0.288199 0.416547 -0.001565 
0.692413 0.899351 0.000441 
0.614322 0.590994 -0.001670 
0.586218 0.491784 -0.001884 
0.538554 0.389359 -0.001601 
0.552297 0.783029 -0.000157 
0.475458 0.583643 -0.001604 
0.694340 0.787879 -0.000200 
[...]
POINT_DATA 749
SCALARS u float 1
LOOKUP_TABLE default
0.053084
0.047233
0.024797
0.016231
0.035548
0.035545
0.077644
0.075234
0.049183
0.054348
0.021627
0.016877
0.042849
0.054312
0.048746
0.049712
0.022029
0.017649
0.028975
0.028692
0.084960
0.082210
0.049453
0.052111
0.020995
0.016985
0.042378
0.051774
0.070569
0.066381
0.069977
0.069166
0.017275
0.020372
0.018978
0.019177
0.046201
0.042368
0.042748
0.042724
0.032188
0.022014
0.013445
0.009443
0.013471
0.019446
0.031944
0.033677
0.029129
0.023157
0.017656
0.012576
0.013876
0.025987
0.040595
0.051343
0.054576
0.048783
0.041086
0.039960
0.054668
0.064184
0.041288
0.022039
0.024506
0.028343
0.033567
0.040284
0.023760
0.053831
0.050276
0.015354
0.016599
0.050917
0.042100
0.034753
0.038436
0.054446
0.043277
0.041312
0.043714
0.038187
0.027462
0.017195
0.010206
0.011451
0.016736
0.020625
0.025626
0.026217
0.022718
0.017632
0.013885
0.011847
0.016603
0.028201
0.040807
0.049360
0.050528
0.043544
0.036397
0.041070
0.060160
0.072667
0.041373
0.023278
0.027327
0.032399
0.037950
0.043755
0.025232
0.052520
0.048916
0.016069
0.016222
0.045718
0.036744
0.031452
0.040775
0.060072
0.050916
0.048543
0.023396
0.016488
0.032801
0.032130
0.081464
0.079037
0.049381
0.052723
0.020619
0.017032
0.042922
0.052756
0.070035
0.067138
0.067788
0.070657
0.019947
0.020085
0.018032
0.017717
0.043664
0.016168
0.010624
0.032015
0.047415
0.053730
0.051157
0.041155
0.025862
0.010917
0.003657
0.009404
0.013933
0.044180
0.019374
0.016838
0.033730
0.048004
0.054139
0.051343
0.041084
0.026574
0.011880
0.002640
0.009225
0.014826
0.039517
0.012252
0.014007
0.034918
0.049634
0.055231
0.052072
0.041243
0.025152
0.009568
0.004457
0.011589
0.016564
0.042798
0.016358
0.013584
0.033566
0.048582
0.054332
0.051288
0.041061
0.023877
0.008627
0.007635
0.012869
0.016681
0.076754
0.074789
0.071387
0.073192
0.066900
0.073181
0.067993
0.074498
0.065939
0.071259
0.066396
0.071847
0.072506
0.071312
0.068540
0.069581
0.072104
0.073744
0.016563
0.056977
0.016829
0.032991
0.046310
0.005068
0.040700
0.013420
0.052921
0.008212
0.051231
0.022114
0.003034
0.028993
0.017704
0.059767
0.016201
0.057376
0.033918
0.019060
0.046431
0.005784
0.052739
0.005271
0.011757
0.040118
0.050990
0.023208
0.007472
0.029874
0.017141
0.060467
0.018535
0.018317
0.019239
0.017871
0.018830
0.054455
0.018178
0.016085
0.032679
0.046703
0.004786
0.052794
0.009045
0.053600
0.041903
0.014476
0.023842
0.002589
0.026980
0.058705
0.018753
0.017966
0.055840
0.018473
0.033745
0.046703
0.005032
0.041640
0.053370
0.051980
0.006175
0.012936
0.024503
0.007277
0.027931
0.017896
0.057606
0.022824
0.011129
0.019704
0.017488
0.021816
0.056163
0.023484
0.020269
0.017253
0.019480
0.004457
0.023602
0.021212
0.046663
0.020527
0.004300
0.011436
0.021415
0.018127
0.018905
0.022211
0.004388
0.025640
0.021263
0.054049
0.014133
0.047654
0.051294
0.029814
0.021135
0.023168
0.022026
0.020567
0.017342
0.020978
0.055817
0.011543
0.053193
0.031701
0.027428
0.028394
0.028481
0.010895
0.029328
0.022972
0.048282
0.010266
0.017471
0.024009
0.016576
0.027822
0.008625
0.054018
0.029826
0.020313
0.028405
0.004555
0.029526
0.021803
0.021823
0.037594
0.011202
0.013269
0.018500
0.022138
0.020945
0.012135
0.022479
0.012900
0.016343
0.023629
0.013944
0.022329
0.031571
0.016025
0.030434
0.055303
0.025224
0.046669
0.017682
0.033103
0.021016
0.022039
0.053684
0.041559
0.022220
0.020319
0.021634
0.022571
0.012103
0.020453
0.025917
0.019675
0.052427
0.019842
0.053390
0.016430
0.021966
0.016216
0.021589
0.053988
0.023229
0.036950
0.015790
0.044474
0.021084
0.023960
0.022109
0.053684
0.020267
0.006071
0.016605
0.024179
0.019586
0.007480
0.053824
0.053854
0.016022
0.034845
0.027756
0.020869
0.031309
0.006789
0.022122
0.014414
0.015293
0.015591
0.021304
0.053459
0.020790
0.021064
0.018526
0.018789
0.006172
0.018128
0.018884
0.041364
0.023746
0.004079
0.007618
0.020288
0.021055
0.018156
0.021892
0.007514
0.026864
0.022040
0.050068
0.015593
0.046620
0.049888
0.030156
0.014911
0.022180
0.021867
0.021032
0.011749
0.020439
0.053304
0.011191
0.051344
0.029360
0.020773
0.021879
0.035629
0.008140
0.030197
0.021449
0.047504
0.013448
0.014384
0.020486
0.018037
0.020687
0.011307
0.049778
0.023336
0.020771
0.035260
0.003831
0.032946
0.018782
0.025816
0.039878
0.013984
0.016090
0.018209
0.022081
0.022776
0.009773
0.021890
0.014683
0.018445
0.020156
0.017764
0.020994
0.024469
0.015887
0.029602
0.052704
0.019970
0.041465
0.017462
0.033950
0.020288
0.022137
0.061227
0.041297
0.018461
0.018415
0.019425
0.022125
0.007599
0.019852
0.027053
0.018436
0.050710
0.021151
0.061009
0.018800
0.021911
0.011729
0.025168
0.051666
0.021912
0.037233
0.016795
0.038940
0.015538
0.017274
0.021932
0.051733
0.014669
0.006358
0.015554
0.017733
0.016113
0.010848
0.050054
0.050039
0.018380
0.031154
0.022151
0.021247
0.024152
0.004220
0.028132
0.039084
0.023318
0.032651
0.044768
0.021890
0.021672
0.043997
0.021296
0.035203
0.035082
0.053395
0.050978
0.051295
0.048852
0.051789
0.052515
0.029448
0.029714
0.048399
0.048008
0.040052
0.015693
0.016209
0.016111
0.022683
0.012224
0.011793
0.044526
0.034522
0.049343
0.034827
0.049534
0.065848
0.064448
0.050979
0.022731
0.017803
0.013286
0.012358
0.020668
0.034048
0.046002
0.052066
0.050594
0.042581
0.037205
0.046909
0.064857
0.027510
0.030960
0.068833
0.042724
0.042062
0.044620
0.046648
0.035861
0.015017
0.017263
0.010256
0.024480
0.012783
0.021596
0.043532
0.045598
0.022135
0.025555
0.028368
0.029498
0.032300
0.032094
0.029406
0.031691
0.029207
0.030090
0.050830
0.022133
0.022364
0.022193
0.022052
0.021746
0.020959
0.021635
0.020956
0.021966
0.019936
0.018364
0.019683
0.019129
0.018777
0.020714
0.020419
0.021686
0.019549
0.021891
0.022605
0.019313
0.021902
0.014591
0.017433
0.018613
0.021092
0.030082
0.012235
0.012604
0.014863
0.015647
0.020434
0.021084
0.023067
0.016848
0.017939
0.016212
0.014901
0.021302
0.010189
0.010393
0.013360
0.016367
0.012263
0.024096
0.024392
0.026903
0.020641
0.022798
0.021232
0.016930
0.017257
0.019541
0.020720
0.021525
0.021361
0.021783
0.021544
0.020656
0.019308
0.020359
0.018751
0.021400
0.021428
0.016658
0.020345
0.019208
0.020677
0.049190
0.020919
0.020597
0.041167
0.015551
0.021703
0.019700
0.024499
0.026785
0.020166
0.011143
0.011230
0.030969
0.038321
0.035781
0.039194
0.022028
0.009058
0.009054
0.023253
0.018230
0.042731
0.020828
0.017116
0.027292
0.019486
0.020521
0.024425
0.053561
0.036473
0.023531
0.024463
0.025444
0.038913
0.036012
0.020554
0.019420
0.017872
0.022898
0.020367
0.019900
0.019143
0.032313
0.022825
0.020240
0.021322
0.020111
0.021496
0.021833
0.022393
0.020687
0.022653
0.024451
0.026463
0.022629
0.021751
0.019279
0.021888
0.023803
0.025968
0.024048
0.023724
0.022385
0.022092
0.021908
0.020569
0.023183
0.020840
0.019236
0.021494
0.018883
0.018932
0.020710
0.021796
0.018993
0.020824
0.018953
0.063214
