# vtk DataFile Version 2.0
Unstructured Grid Example
ASCII
DATASET UNSTRUCTURED_GRID
POINTS 749 float
-0.021725 0.014586 -0.002338 
0.480069 -0.011505 -0.004104 
0.207139 0.690028 0.000445 
0.707143 0.703341 0.001530 
0.107496 0.684115 0.000991 
0.098007 0.983357 -0.005339 
1.621326 0.968209 0.003337 
1.580960 0.668237 -0.003873 
0.924731 0.522298 -0.000762 
0.999909 0.726841 -0.001731 
0.650721 0.493293 0.002782 
0.663532 0.545195 0.002420 
0.904770 0.570656 -0.000541 
1.048376 0.726751 -0.002067 
-0.020923 0.011788 0.177700 
0.480547 -0.014444 0.175729 
0.207593 0.692450 0.182052 
0.707443 0.704563 0.179727 
0.107277 0.687726 0.181420 
0.097410 0.987078 0.174712 
1.621508 0.964007 0.183149 
1.581265 0.664072 0.176313 
0.926226 0.521733 0.179180 
1.000358 0.725788 0.179960 
0.650890 0.493423 0.180418 
0.664111 0.545329 0.180545 
0.906132 0.570050 0.179468 
1.048932 0.725601 0.179834 
1.601308 0.815100 0.134782 
1.601237 0.817172 0.044737 
1.607168 0.861127 0.090822 
1.595364 0.771110 0.088675 
0.302566 0.841967 0.133589 
0.302790 0.840449 0.043371 
0.300988 0.885976 0.087589 
0.304461 0.796646 0.089386 
0.103529 0.007356 -0.002777 
0.229293 0.000556 -0.003254 
0.354880 -0.005394 -0.003700 
0.008371 0.100511 -0.001131 
0.038669 0.186197 0.000116 
0.068928 0.271446 0.001343 
0.098768 0.356137 0.002258 
0.127811 0.440013 0.002761 
0.155889 0.523398 0.002683 
0.182474 0.606657 0.001617 
0.157534 0.686131 0.000913 
0.102335 0.833639 -0.002154 
0.205183 0.986587 -0.004905 
0.312254 0.989628 -0.004432 
0.418440 0.992687 -0.003734 
0.524157 0.996810 -0.003013 
0.629878 1.002968 -0.002071 
0.736319 1.011044 -0.000833 
0.845132 1.019482 0.000618 
0.956371 1.025328 0.001886 
1.069236 1.026382 0.003002 
1.181757 1.021613 0.003011 
1.294312 1.012316 0.003746 
1.405076 0.998552 0.003762 
1.513847 0.983305 0.003563 
1.601159 0.818257 -0.000252 
0.856105 0.719484 -0.000805 
0.623073 0.406855 0.002546 
0.595269 0.321351 0.001871 
0.566525 0.236867 0.000488 
0.537500 0.153531 -0.001015 
0.508562 0.070754 -0.002597 
0.788927 0.506153 0.000667 
0.983936 0.626573 -0.001246 
0.950157 0.649863 -0.000946 
0.783050 0.556106 0.000640 
0.686270 0.623451 0.002414 
1.134412 0.723940 -0.003040 
1.221487 0.716786 -0.003464 
1.309598 0.706715 -0.003677 
1.398939 0.694193 -0.003722 
1.489501 0.681102 -0.003778 
0.104290 0.004638 0.177111 
0.229962 -0.002133 0.176541 
0.355413 -0.008296 0.176054 
0.009155 0.097752 0.178990 
0.039415 0.183519 0.180325 
0.069699 0.268946 0.181664 
0.099640 0.354110 0.182914 
0.128944 0.438746 0.183874 
0.156975 0.523383 0.184164 
0.183305 0.607807 0.183632 
0.157384 0.689803 0.181529 
0.101960 0.837329 0.178007 
0.204557 0.990179 0.175175 
0.311564 0.992788 0.175909 
0.417643 0.995264 0.176765 
0.523354 0.998876 0.177573 
0.629071 1.004465 0.178144 
0.735518 1.011814 0.178829 
0.844434 1.019399 0.179239 
0.955764 1.024388 0.179706 
1.068753 1.024604 0.180206 
1.181497 1.019003 0.181384 
1.294045 1.009054 0.181749 
1.405204 0.994851 0.182606 
1.513993 0.979255 0.183062 
1.601346 0.814062 0.179784 
0.856296 0.719477 0.180527 
0.623447 0.406026 0.180372 
0.595502 0.319813 0.179825 
0.566764 0.234675 0.179294 
0.537803 0.150747 0.178277 
0.508972 0.067857 0.176956 
0.790096 0.505572 0.180439 
0.984885 0.625862 0.178952 
0.951102 0.649170 0.179177 
0.784310 0.555450 0.180779 
0.686585 0.624520 0.179872 
1.134827 0.721554 0.179222 
1.221819 0.714005 0.178600 
1.309929 0.703283 0.177910 
1.399140 0.690399 0.177194 
1.489816 0.676990 0.176602 
-0.021350 0.013179 0.087664 
0.480273 -0.013059 0.085819 
0.207300 0.691109 0.091313 
0.707285 0.703638 0.090532 
0.107594 0.685695 0.091106 
0.097699 0.985182 0.084709 
1.621467 0.966032 0.093287 
1.580991 0.666022 0.086223 
0.925757 0.521930 0.089218 
1.000037 0.726079 0.089135 
0.650216 0.493136 0.091693 
0.663863 0.545156 0.091559 
0.905642 0.570473 0.089479 
1.048376 0.726025 0.088664 
1.597147 0.783650 0.120846 
1.597059 0.785099 0.057150 
1.605452 0.848721 0.058707 
1.605417 0.847277 0.122341 
0.301540 0.872324 0.055965 
0.304001 0.809128 0.057251 
0.303870 0.810182 0.120985 
0.301352 0.873409 0.119743 
1.508447 0.828430 0.134897 
1.415622 0.842111 0.134957 
1.322755 0.855088 0.135009 
1.229663 0.865807 0.134975 
1.136471 0.873454 0.135111 
1.043389 0.876586 0.135012 
0.950385 0.875315 0.135056 
0.857318 0.870367 0.134869 
0.764561 0.862786 0.134477 
0.672183 0.855290 0.134204 
0.580064 0.849652 0.134037 
0.487891 0.846019 0.133961 
0.395352 0.843685 0.133799 
1.514127 0.874302 0.090957 
1.420811 0.888044 0.090988 
1.327232 0.900907 0.090934 
1.232725 0.911151 0.090756 
1.138587 0.918575 0.090630 
1.044556 0.921736 0.090466 
0.950493 0.920405 0.090229 
0.856777 0.915330 0.089922 
0.763431 0.908117 0.089570 
0.670518 0.900754 0.089204 
0.578166 0.894951 0.088759 
0.485943 0.890758 0.088328 
0.393615 0.888010 0.087901 
1.508379 0.830482 0.044876 
1.415523 0.844064 0.045018 
1.322726 0.856809 0.045056 
1.229582 0.867252 0.045034 
1.136579 0.874549 0.044944 
1.043474 0.877328 0.045079 
0.950488 0.875766 0.044967 
0.857449 0.870409 0.044910 
0.764733 0.862440 0.045007 
0.672389 0.854634 0.044836 
0.580288 0.848730 0.044447 
0.488131 0.844888 0.044041 
0.395610 0.842398 0.043646 
1.502688 0.784327 0.088813 
1.410373 0.797978 0.089039 
1.318147 0.810805 0.089144 
1.226411 0.821455 0.089263 
1.134402 0.829002 0.089452 
1.042362 0.831882 0.089632 
0.950303 0.830381 0.089826 
0.858275 0.825290 0.089887 
0.765608 0.816742 0.089881 
0.673802 0.808546 0.089860 
0.581936 0.803298 0.089757 
0.489712 0.800057 0.089615 
0.397316 0.798071 0.089480 
1.614925 0.916950 0.132449 
1.587700 0.713371 0.127699 
1.587585 0.715215 0.047011 
1.614791 0.918264 0.052628 
1.592460 0.752305 0.018218 
1.592654 0.749072 0.158210 
1.609746 0.882173 0.020409 
1.610013 0.880046 0.161265 
1.597081 0.786532 0.031522 
1.597234 0.783876 0.146523 
1.605233 0.847814 0.031983 
1.605391 0.845836 0.147998 
1.609579 0.877931 0.122424 
1.593013 0.752852 0.119540 
1.592917 0.754276 0.056998 
1.609419 0.878399 0.057328 
1.589132 0.725287 0.087622 
1.613318 0.905920 0.091144 
0.347867 0.825377 0.116761 
1.554656 0.804572 0.117193 
0.718725 0.835774 0.112093 
0.811081 0.843821 0.112250 
0.903951 0.850416 0.112450 
0.626948 0.828994 0.111986 
1.181844 0.847639 0.112281 
0.442701 0.821858 0.111719 
0.996522 0.853691 0.112424 
0.534952 0.824628 0.111885 
1.089246 0.852854 0.112368 
1.274227 0.838413 0.112209 
1.366713 0.826633 0.112059 
1.459436 0.813217 0.111988 
0.337439 0.809416 0.101367 
1.563711 0.787709 0.101145 
0.346256 0.859638 0.116018 
1.559089 0.839073 0.117968 
0.810757 0.889284 0.112195 
0.718014 0.881915 0.111941 
0.904136 0.895472 0.112443 
0.625318 0.875191 0.111577 
0.997193 0.898590 0.112538 
0.533057 0.870384 0.111278 
0.440665 0.867058 0.110971 
1.184375 0.892228 0.112685 
1.090770 0.897691 0.112725 
1.278041 0.883569 0.112903 
1.371426 0.871618 0.112903 
1.464582 0.858236 0.112891 
0.334606 0.874743 0.100066 
1.572166 0.853467 0.102707 
0.302705 0.841329 0.088632 
0.303371 0.823864 0.096233 
0.303034 0.833694 0.070738 
0.302383 0.848599 0.106486 
0.302049 0.859108 0.081378 
1.554573 0.805826 0.061619 
0.348375 0.814220 0.071833 
0.718738 0.835412 0.067480 
0.811164 0.843667 0.067479 
0.903974 0.850610 0.067379 
0.627094 0.828569 0.067215 
1.089029 0.853626 0.067242 
0.535074 0.824163 0.066947 
0.996493 0.854026 0.067294 
1.181847 0.848233 0.067123 
0.442772 0.821295 0.066679 
1.274328 0.839271 0.067028 
1.366677 0.827529 0.067001 
1.459365 0.814230 0.066879 
1.563656 0.788244 0.076865 
0.336698 0.829312 0.055875 
0.346391 0.858767 0.060451 
1.560459 0.850553 0.073213 
0.718173 0.881629 0.067111 
0.810861 0.889200 0.067375 
0.904255 0.895604 0.067577 
0.625470 0.874848 0.066816 
1.184358 0.892983 0.067977 
0.997324 0.898896 0.067828 
1.090838 0.898176 0.067863 
0.533182 0.869843 0.066404 
0.440788 0.866474 0.065947 
1.277922 0.884259 0.068010 
1.371414 0.872533 0.068063 
1.464562 0.859233 0.068009 
0.334704 0.874378 0.075777 
1.569507 0.833758 0.057213 
0.427817 0.587842 0.002077 
0.347245 0.356870 0.001878 
0.386422 0.784787 -0.000493 
0.535819 0.711663 0.001086 
0.547452 0.549232 0.002465 
1.036717 0.876488 0.000057 
0.330368 0.672442 0.000966 
0.444919 0.464729 0.002452 
0.300697 0.488990 0.002385 
0.238008 0.189071 -0.000279 
0.621495 0.836659 -0.000080 
0.271363 0.764433 -0.000493 
0.438442 0.691760 0.000995 
1.175721 0.870357 -0.000026 
0.395297 0.201770 -0.000244 
1.367471 0.848693 -0.000039 
0.512844 0.834060 -0.000674 
0.503992 0.629595 0.001852 
0.478313 0.333128 0.001756 
0.600274 0.630848 0.002241 
0.322808 0.580781 0.002073 
0.234183 0.359932 0.001953 
0.769678 0.845105 0.000162 
0.552777 0.450403 0.002622 
1.097992 0.822986 -0.001109 
0.728364 0.528191 0.001444 
0.903044 0.929551 0.000513 
0.937383 0.805057 -0.000783 
0.842720 0.540849 0.000117 
0.320612 0.877040 -0.002335 
0.271287 0.630855 0.001340 
0.471561 0.521050 0.002527 
0.380905 0.504114 0.002364 
0.400664 0.878181 -0.002048 
0.603483 0.533751 0.002486 
1.020460 0.796508 -0.001175 
0.633254 0.746631 0.000752 
0.991083 0.675549 -0.001464 
0.159565 0.111008 -0.001378 
0.193514 0.784988 -0.000996 
1.272040 0.804397 -0.001556 
1.460185 0.779801 -0.001515 
0.173939 0.285019 0.001265 
0.330366 0.111019 -0.001776 
0.392893 0.640535 0.001556 
0.941276 0.595387 -0.000833 
0.215771 0.447850 0.002454 
0.483526 0.751898 0.000307 
0.272502 0.699153 0.000510 
0.367831 0.433434 0.002428 
0.200752 0.882361 -0.002888 
0.286633 0.288960 0.001059 
1.104985 0.938475 0.001410 
1.276091 0.905884 0.001271 
0.268885 0.557304 0.002142 
1.466918 0.892617 0.001294 
0.571575 0.907046 -0.001457 
0.446977 0.138461 -0.001300 
0.381426 0.712761 0.000619 
0.478914 0.238329 0.000410 
0.423737 0.058444 -0.002795 
0.293533 0.409796 0.002245 
0.690559 0.910288 -0.000632 
0.627008 0.582995 0.002395 
0.598182 0.478308 0.002702 
0.543293 0.372871 0.002297 
0.560379 0.776829 0.000225 
0.489333 0.571447 0.002300 
0.699596 0.797341 0.000286 
0.423585 0.381744 0.002149 
[...]
POINT_DATA 749
SCALARS u float 1
LOOKUP_TABLE default
0.053084
0.047233
0.024797
0.016231
0.035548
0.035545
0.077644
0.075234
0.049183
0.054348
0.021627
0.016877
0.042849
0.054312
0.048746
0.049712
0.022029
0.017649
0.028975
0.028692
0.084960
0.082210
0.049453
0.052111
0.020995
0.016985
0.042378
0.051774
0.070569
0.066381
0.069977
0.069166
0.017275
0.020372
0.018978
0.019177
0.046201
0.042368
0.042748
0.042724
0.032188
0.022014
0.013445
0.009443
0.013471
0.019446
0.031944
0.033677
0.029129
0.023157
0.017656
0.012576
0.013876
0.025987
0.040595
0.051343
0.054576
0.048783
0.041086
0.039960
0.054668
0.064184
0.041288
0.022039
0.024506
0.028343
0.033567
0.040284
0.023760
0.053831
0.050276
0.015354
0.016599
0.050917
0.042100
0.034753
0.038436
0.054446
0.043277
0.041312
0.043714
0.038187
0.027462
0.017195
0.010206
0.011451
0.016736
0.020625
0.025626
0.026217
0.022718
0.017632
0.013885
0.011847
0.016603
0.028201
0.040807
0.049360
0.050528
0.043544
0.036397
0.041070
0.060160
0.072667
0.041373
0.023278
0.027327
0.032399
0.037950
0.043755
0.025232
0.052520
0.048916
0.016069
0.016222
0.045718
0.036744
0.031452
0.040775
0.060072
0.050916
0.048543
0.023396
0.016488
0.032801
0.032130
0.081464
0.079037
0.049381
0.052723
0.020619
0.017032
0.042922
0.052756
0.070035
0.067138
0.067788
0.070657
0.019947
0.020085
0.018032
0.017717
0.043664
0.016168
0.010624
0.032015
0.047415
0.053730
0.051157
0.041155
0.025862
0.010917
0.003657
0.009404
0.013933
0.044180
0.019374
0.016838
0.033730
0.048004
0.054139
0.051343
0.041084
0.026574
0.011880
0.002640
0.009225
0.014826
0.039517
0.012252
0.014007
0.034918
0.049634
0.055231
0.052072
0.041243
0.025152
0.009568
0.004457
0.011589
0.016564
0.042798
0.016358
0.013584
0.033566
0.048582
0.054332
0.051288
0.041061
0.023877
0.008627
0.007635
0.012869
0.016681
0.076754
0.074789
0.071387
0.073192
0.066900
0.073181
0.067993
0.074498
0.065939
0.071259
0.066396
0.071847
0.072506
0.071312
0.068540
0.069581
0.072104
0.073744
0.016563
0.056977
0.016829
0.032991
0.046310
0.005068
0.040700
0.013420
0.052921
0.008212
0.051231
0.022114
0.003034
0.028993
0.017704
0.059767
0.016201
0.057376
0.033918
0.019060
0.046431
0.005784
0.052739
0.005271
0.011757
0.040118
0.050990
0.023208
0.007472
0.029874
0.017141
0.060467
0.018535
0.018317
0.019239
0.017871
0.018830
0.054455
0.018178
0.016085
0.032679
0.046703
0.004786
0.052794
0.009045
0.053600
0.041903
0.014476
0.023842
0.002589
0.026980
0.058705
0.018753
0.017966
0.055840
0.018473
0.033745
0.046703
0.005032
0.041640
0.053370
0.051980
0.006175
0.012936
0.024503
0.007277
0.027931
0.017896
0.057606
0.022824
0.011129
0.019704
0.017488
0.021816
0.056163
0.023484
0.020269
0.017253
0.019480
0.004457
0.023602
0.021212
0.046663
0.020527
0.004300
0.011436
0.021415
0.018127
0.018905
0.022211
0.004388
0.025640
0.021263
0.054049
0.014133
0.047654
0.051294
0.029814
0.021135
0.023168
0.022026
0.020567
0.017342
0.020978
0.055817
0.011543
0.053193
0.031701
0.027428
0.028394
0.028481
0.010895
0.029328
0.022972
0.048282
0.010266
0.017471
0.024009
0.016576
0.027822
0.008625
0.054018
0.029826
0.020313
0.028405
0.004555
0.029526
0.021803
0.021823
0.037594
0.011202
0.013269
0.018500
0.022138
0.020945
0.012135
0.022479
0.012900
0.016343
0.023629
0.013944
0.022329
0.031571
0.016025
0.030434
0.055303
0.025224
0.046669
0.017682
0.033103
0.021016
0.022039
0.053684
0.041559
0.022220
0.020319
0.021634
0.022571
0.012103
0.020453
0.025917
0.019675
0.052427
0.019842
0.053390
0.016430
0.021966
0.016216
0.021589
0.053988
0.023229
0.036950
0.015790
0.044474
0.021084
0.023960
0.022109
0.053684
0.020267
0.006071
0.016605
0.024179
0.019586
0.007480
0.053824
0.053854
0.016022
0.034845
0.027756
0.020869
0.031309
0.006789
0.022122
0.014414
0.015293
0.015591
0.021304
0.053459
0.020790
0.021064
0.018526
0.018789
0.006172
0.018128
0.018884
0.041364
0.023746
0.004079
0.007618
0.020288
0.021055
0.018156
0.021892
0.007514
0.026864
0.022040
0.050068
0.015593
0.046620
0.049888
0.030156
0.014911
0.022180
0.021867
0.021032
0.011749
0.020439
0.053304
0.011191
0.051344
0.029360
0.020773
0.021879
0.035629
0.008140
0.030197
0.021449
0.047504
0.013448
0.014384
0.020486
0.018037
0.020687
0.011307
0.049778
0.023336
0.020771
0.035260
0.003831
0.032946
0.018782
0.025816
0.039878
0.013984
0.016090
0.018209
0.022081
0.022776
0.009773
0.021890
0.014683
0.018445
0.020156
0.017764
0.020994
0.024469
0.015887
0.029602
0.052704
0.019970
0.041465
0.017462
0.033950
0.020288
0.022137
0.061227
0.041297
0.018461
0.018415
0.019425
0.022125
0.007599
0.019852
0.027053
0.018436
0.050710
0.021151
0.061009
0.018800
0.021911
0.011729
0.025168
0.051666
0.021912
0.037233
0.016795
0.038940
0.015538
0.017274
0.021932
0.051733
0.014669
0.006358
0.015554
0.017733
0.016113
0.010848
0.050054
0.050039
0.018380
0.031154
0.022151
0.021247
0.024152
0.004220
0.028132
0.039084
0.023318
0.032651
0.044768
0.021890
0.021672
0.043997
0.021296
0.035203
0.035082
0.053395
0.050978
0.051295
0.048852
0.051789
0.052515
0.029448
0.029714
0.048399
0.048008
0.040052
0.015693
0.016209
0.016111
0.022683
0.012224
0.011793
0.044526
0.034522
0.049343
0.034827
0.049534
0.065848
0.064448
0.050979
0.022731
0.017803
0.013286
0.012358
0.020668
0.034048
0.046002
0.052066
0.050594
0.042581
0.037205
0.046909
0.064857
0.027510
0.030960
0.068833
0.042724
0.042062
0.044620
0.046648
0.035861
0.015017
0.017263
0.010256
0.024480
0.012783
0.021596
0.043532
0.045598
0.022135
0.025555
0.028368
0.029498
0.032300
0.032094
0.029406
0.031691
0.029207
0.030090
0.050830
0.022133
0.022364
0.022193
0.022052
0.021746
0.020959
0.021635
0.020956
0.021966
0.019936
0.018364
0.019683
0.019129
0.018777
0.020714
0.020419
0.021686
0.019549
0.021891
0.022605
0.019313
0.021902
0.014591
0.017433
0.018613
0.021092
0.030082
0.012235
0.012604
0.014863
0.015647
0.020434
0.021084
0.023067
0.016848
0.017939
0.016212
0.014901
0.021302
0.010189
0.010393
0.013360
0.016367
0.012263
0.024096
0.024392
0.026903
0.020641
0.022798
0.021232
0.016930
0.017257
0.019541
0.020720
0.021525
0.021361
0.021783
0.021544
0.020656
0.019308
0.020359
0.018751
0.021400
0.021428
0.016658
0.020345
0.019208
0.020677
0.049190
0.020919
0.020597
0.041167
0.015551
0.021703
0.019700
0.024499
0.026785
0.020166
0.011143
0.011230
0.030969
0.038321
0.035781
0.039194
0.022028
0.009058
0.009054
0.023253
0.018230
0.042731
0.020828
0.017116
0.027292
0.019486
0.020521
0.024425
0.053561
0.036473
0.023531
0.024463
0.025444
0.038913
0.036012
0.020554
0.019420
0.017872
0.022898
0.020367
0.019900
0.019143
0.032313
0.022825
0.020240
0.021322
0.020111
0.021496
0.021833
0.022393
0.020687
0.022653
0.024451
0.026463
0.022629
0.021751
0.019279
0.021888
0.023803
0.025968
0.024048
0.023724
0.022385
0.022092
0.021908
0.020569
0.023183
0.020840
0.019236
0.021494
0.018883
0.018932
0.020710
0.021796
0.018993
0.020824
0.018953
0.063214
