# vtk DataFile Version 2.0
Unstructured Grid Example
ASCII
DATASET UNSTRUCTURED_GRID
POINTS 749 float
0.004154 -0.002789 0.000447 
0.503811 0.002200 0.000785 
0.198635 0.701907 -0.000085 
0.698634 0.699361 -0.000293 
0.098567 0.703037 -0.000189 
0.100381 1.003182 0.001021 
1.595922 1.006078 -0.000638 
1.603640 0.706073 0.000740 
0.913139 0.495737 0.000146 
1.000017 0.694868 0.000331 
0.641354 0.501282 -0.000532 
0.655921 0.550919 -0.000463 
0.899088 0.546051 0.000103 
1.050310 0.694885 0.000395 
0.004000 -0.002254 0.180440 
0.503719 0.002762 0.180817 
0.198548 0.701444 0.179608 
0.698577 0.699128 0.180052 
0.098609 0.702347 0.179728 
0.100495 1.002471 0.181011 
1.595888 1.006882 0.179398 
1.603582 0.706869 0.180705 
0.912854 0.495845 0.180157 
0.999932 0.695069 0.180008 
0.641321 0.501258 0.179920 
0.655811 0.550893 0.179896 
0.898828 0.546167 0.180102 
1.050204 0.695105 0.180032 
1.599750 0.856673 0.135042 
1.599764 0.856277 0.045050 
1.598630 0.901476 0.089843 
1.600886 0.811480 0.090253 
0.299509 0.851536 0.135270 
0.299467 0.851826 0.045312 
0.299811 0.896725 0.090461 
0.299147 0.806597 0.090117 
0.129105 -0.001406 0.000531 
0.253959 -0.000106 0.000622 
0.378847 0.001031 0.000707 
0.028179 0.085012 0.000216 
0.052166 0.172859 -0.000022 
0.076161 0.260790 -0.000257 
0.100236 0.348827 -0.000432 
0.124462 0.437020 -0.000528 
0.148874 0.525306 -0.000513 
0.173571 0.613617 -0.000309 
0.148560 0.702652 -0.000174 
0.099554 0.853128 0.000412 
0.207518 1.002565 0.000938 
0.314674 1.001983 0.000847 
0.422000 1.001398 0.000714 
0.529415 1.000610 0.000576 
0.636830 0.999433 0.000396 
0.744107 0.997888 0.000159 
0.850931 0.996275 -0.000118 
0.957291 0.995157 -0.000361 
1.063339 0.994956 -0.000574 
1.169454 0.995868 -0.000576 
1.275562 0.997645 -0.000716 
1.382012 1.000277 -0.000719 
1.488844 1.003192 -0.000681 
1.599778 0.856069 0.000048 
0.848833 0.696275 0.000154 
0.618278 0.418543 -0.000487 
0.595232 0.335624 -0.000358 
0.572366 0.252511 -0.000093 
0.549554 0.169178 0.000194 
0.526725 0.085738 0.000497 
0.777017 0.498823 -0.000127 
0.982225 0.594919 0.000238 
0.949970 0.620246 0.000181 
0.777715 0.548833 -0.000122 
0.677100 0.625296 -0.000462 
1.143054 0.695423 0.000581 
1.235598 0.696790 0.000662 
1.327945 0.698716 0.000703 
1.420056 0.701110 0.000712 
1.511934 0.703613 0.000722 
0.128960 -0.000887 0.180552 
0.253831 0.000408 0.180661 
0.378745 0.001586 0.180754 
0.028029 0.085540 0.180193 
0.052024 0.173371 0.179938 
0.076014 0.261268 0.179682 
0.100069 0.349214 0.179443 
0.124246 0.437262 0.179259 
0.148666 0.525309 0.179204 
0.173412 0.613397 0.179306 
0.148588 0.701950 0.179708 
0.099625 0.852423 0.180381 
0.207637 1.001878 0.180923 
0.314806 1.001379 0.180782 
0.422152 1.000906 0.180618 
0.529569 1.000215 0.180464 
0.636985 0.999146 0.180355 
0.744260 0.997741 0.180224 
0.851064 0.996291 0.180146 
0.957406 0.995337 0.180056 
1.063432 0.995296 0.179961 
1.169503 0.996367 0.179735 
1.275613 0.998269 0.179666 
1.381988 1.000984 0.179502 
1.488816 1.003966 0.179415 
1.599743 0.856871 0.180041 
0.848796 0.696276 0.179899 
0.618207 0.418701 0.179929 
0.595188 0.335918 0.180034 
0.572321 0.252930 0.180135 
0.549496 0.169710 0.180329 
0.526646 0.086292 0.180582 
0.776793 0.498935 0.179916 
0.982044 0.595055 0.180200 
0.949789 0.620379 0.180157 
0.777474 0.548958 0.179851 
0.677039 0.625092 0.180024 
1.142974 0.695879 0.180149 
1.235535 0.697322 0.180268 
1.327882 0.699372 0.180400 
1.420018 0.701836 0.180537 
1.511874 0.704399 0.180650 
0.004082 -0.002520 0.090447 
0.503772 0.002497 0.090799 
0.198604 0.701700 0.089749 
0.698607 0.699304 0.089898 
0.098548 0.702735 0.089789 
0.100440 1.002833 0.091012 
1.595895 1.006495 0.089372 
1.603634 0.706496 0.090722 
0.912943 0.495807 0.090150 
0.999993 0.695014 0.090165 
0.641450 0.501312 0.089676 
0.655858 0.550926 0.089702 
0.898921 0.546086 0.090100 
1.050310 0.695024 0.090255 
1.600545 0.824782 0.122006 
1.600562 0.824505 0.058377 
1.598958 0.888148 0.058080 
1.598964 0.888424 0.121720 
0.299705 0.883635 0.058604 
0.299235 0.819911 0.058358 
0.299260 0.819709 0.121979 
0.299742 0.883428 0.122217 
1.506894 0.854124 0.135020 
1.414030 0.851508 0.135008 
1.321175 0.849027 0.134998 
1.228363 0.846978 0.135005 
1.135570 0.845516 0.134979 
1.042755 0.844917 0.134998 
0.949926 0.845160 0.134989 
0.857109 0.846106 0.135025 
0.764233 0.847555 0.135100 
0.671284 0.848988 0.135152 
0.578286 0.850067 0.135184 
0.485298 0.850761 0.135199 
0.392380 0.851207 0.135230 
1.505808 0.898957 0.089817 
1.413038 0.896330 0.089811 
1.320319 0.893871 0.089821 
1.227777 0.891912 0.089856 
1.135165 0.890493 0.089880 
1.042532 0.889888 0.089911 
0.949906 0.890143 0.089956 
0.857213 0.891113 0.090015 
0.764449 0.892492 0.090082 
0.671603 0.893900 0.090152 
0.578649 0.895009 0.090237 
0.485671 0.895811 0.090320 
0.392712 0.896336 0.090401 
1.506906 0.853732 0.045024 
1.414049 0.851135 0.044996 
1.321181 0.848698 0.044989 
1.228378 0.846702 0.044994 
1.135549 0.845306 0.045011 
1.042739 0.844775 0.044985 
0.949907 0.845074 0.045006 
0.857084 0.846098 0.045017 
0.764200 0.847621 0.044999 
0.671245 0.849114 0.045031 
0.578243 0.850243 0.045106 
0.485252 0.850977 0.045183 
0.392331 0.851453 0.045259 
1.507995 0.808953 0.090227 
1.415034 0.806343 0.090184 
1.322056 0.803890 0.090164 
1.228984 0.801854 0.090141 
1.135965 0.800411 0.090105 
1.042952 0.799860 0.090070 
0.949942 0.800147 0.090033 
0.856926 0.801121 0.090022 
0.764033 0.802755 0.090023 
0.670975 0.804322 0.090027 
0.577928 0.805326 0.090047 
0.484950 0.805945 0.090074 
0.392005 0.806325 0.090099 
1.597146 0.958483 0.129908 
1.602352 0.754839 0.130816 
1.602374 0.754487 0.050195 
1.597172 0.957569 0.050060 
1.601442 0.790648 0.020377 
1.601405 0.791266 0.160306 
1.598137 0.920509 0.018895 
1.598086 0.922286 0.159722 
1.600558 0.825232 0.032706 
1.600529 0.825740 0.147668 
1.599000 0.886453 0.031424 
1.598969 0.887699 0.147386 
1.598168 0.919098 0.120943 
1.601336 0.794010 0.121593 
1.601354 0.793738 0.059069 
1.598199 0.917829 0.055883 
1.602078 0.765676 0.090455 
1.597454 0.946335 0.088895 
0.343765 0.834160 0.117939 
1.555752 0.838138 0.117856 
0.717691 0.825918 0.112578 
0.810644 0.824379 0.112548 
0.903499 0.823119 0.112510 
0.624628 0.827214 0.112598 
1.182200 0.823649 0.112542 
0.438633 0.828579 0.112649 
0.996411 0.822492 0.112515 
0.531606 0.828049 0.112618 
1.089293 0.822652 0.112525 
1.275148 0.825413 0.112556 
1.368076 0.827666 0.112584 
1.460959 0.830231 0.112598 
0.332561 0.818599 0.102270 
1.567219 0.822749 0.102312 
0.344073 0.868705 0.118081 
1.554905 0.872637 0.117708 
0.810706 0.869291 0.112558 
0.717827 0.870700 0.112607 
0.903463 0.868108 0.112511 
0.624939 0.871986 0.112676 
0.996282 0.867512 0.112493 
0.531968 0.872905 0.112734 
0.439022 0.873541 0.112792 
1.181716 0.868728 0.112465 
1.089002 0.867684 0.112457 
1.274419 0.870384 0.112423 
1.367175 0.872669 0.112423 
1.459975 0.875227 0.112425 
0.333103 0.884430 0.102519 
1.565602 0.888498 0.102014 
0.299483 0.851613 0.090440 
0.299355 0.833794 0.097602 
0.299420 0.844312 0.072424 
0.299544 0.858563 0.108401 
0.299608 0.869700 0.083633 
1.555768 0.837898 0.062371 
0.343668 0.823785 0.072925 
0.717689 0.825987 0.067504 
0.810628 0.824409 0.067504 
0.903494 0.823081 0.067523 
0.624600 0.827296 0.067554 
1.089335 0.822505 0.067549 
0.531582 0.828138 0.067606 
0.996416 0.822428 0.067539 
1.182200 0.823536 0.067572 
0.438619 0.828686 0.067657 
1.275129 0.825249 0.067590 
1.368083 0.827495 0.067595 
1.460972 0.830037 0.067619 
1.567229 0.822647 0.078068 
0.332703 0.839512 0.057364 
0.344048 0.868872 0.062594 
1.554643 0.882950 0.072661 
0.717797 0.870755 0.067574 
0.810686 0.869307 0.067524 
0.903441 0.868083 0.067485 
0.624910 0.872051 0.067631 
1.181719 0.868584 0.067409 
0.996257 0.867453 0.067437 
1.088989 0.867591 0.067431 
0.531944 0.873008 0.067710 
0.438999 0.873652 0.067797 
1.274441 0.870252 0.067402 
1.367177 0.872494 0.067392 
1.459979 0.875037 0.067403 
0.333084 0.884500 0.078276 
1.566111 0.867549 0.057108 
0.418004 0.596710 -0.000397 
0.345950 0.362900 -0.000359 
0.380614 0.794830 0.000094 
0.527714 0.717903 -0.000208 
0.538075 0.557531 -0.000471 
1.035973 0.843387 -0.000011 
0.321084 0.682647 -0.000185 
0.437628 0.473734 -0.000469 
0.293404 0.495486 -0.000456 
0.249486 0.188887 0.000053 
0.619036 0.835738 0.000015 
0.264898 0.776740 0.000094 
0.429672 0.700596 -0.000190 
1.174568 0.842871 0.000005 
0.404429 0.209706 0.000047 
1.366513 0.846346 0.000007 
0.509471 0.839843 0.000129 
0.494343 0.637433 -0.000354 
0.477532 0.343579 -0.000336 
0.590781 0.636042 -0.000428 
0.313186 0.589313 -0.000396 
0.233892 0.361025 -0.000373 
0.768524 0.830035 -0.000031 
0.545690 0.460259 -0.000501 
1.099741 0.791198 0.000212 
0.720238 0.527541 -0.000276 
0.903212 0.901465 -0.000098 
0.936275 0.774852 0.000150 
0.834398 0.525367 -0.000022 
0.318753 0.889042 0.000446 
0.261549 0.640299 -0.000256 
0.462616 0.529968 -0.000483 
0.372629 0.512515 -0.000452 
0.398866 0.887946 0.000391 
0.594508 0.541728 -0.000475 
1.021235 0.763641 0.000225 
0.626547 0.747352 -0.000144 
0.991139 0.644238 0.000280 
0.177464 0.105887 0.000263 
0.188489 0.800311 0.000190 
1.277304 0.788615 0.000297 
1.467550 0.794782 0.000290 
0.179253 0.281741 -0.000242 
0.346823 0.115881 0.000340 
0.383156 0.649764 -0.000298 
0.937098 0.567249 0.000159 
0.211045 0.450246 -0.000469 
0.476619 0.759531 -0.000059 
0.263828 0.710321 -0.000098 
0.362249 0.440916 -0.000464 
0.199345 0.898337 0.000552 
0.290595 0.291887 -0.000203 
1.100914 0.906935 -0.000270 
1.270061 0.889436 -0.000243 
0.259779 0.564650 -0.000410 
1.457429 0.906328 -0.000247 
0.572258 0.908978 0.000278 
0.460460 0.149360 0.000249 
0.373197 0.722608 -0.000118 
0.484745 0.249787 -0.000078 
0.443192 0.068523 0.000534 
0.289789 0.414534 -0.000429 
0.691860 0.902611 0.000121 
0.618104 0.588610 -0.000458 
0.589785 0.487767 -0.000517 
0.539967 0.384443 -0.000439 
0.554706 0.781181 -0.000043 
0.479594 0.580007 -0.000440 
0.695907 0.790700 -0.000055 
[...]
POINT_DATA 749
SCALARS u float 1
LOOKUP_TABLE default
0.053084
0.047233
0.024797
0.016231
0.035548
0.035545
0.077644
0.075234
0.049183
0.054348
0.021627
0.016877
0.042849
0.054312
0.048746
0.049712
0.022029
0.017649
0.028975
0.028692
0.084960
0.082210
0.049453
0.052111
0.020995
0.016985
0.042378
0.051774
0.070569
0.066381
0.069977
0.069166
0.017275
0.020372
0.018978
0.019177
0.046201
0.042368
0.042748
0.042724
0.032188
0.022014
0.013445
0.009443
0.013471
0.019446
0.031944
0.033677
0.029129
0.023157
0.017656
0.012576
0.013876
0.025987
0.040595
0.051343
0.054576
0.048783
0.041086
0.039960
0.054668
0.064184
0.041288
0.022039
0.024506
0.028343
0.033567
0.040284
0.023760
0.053831
0.050276
0.015354
0.016599
0.050917
0.042100
0.034753
0.038436
0.054446
0.043277
0.041312
0.043714
0.038187
0.027462
0.017195
0.010206
0.011451
0.016736
0.020625
0.025626
0.026217
0.022718
0.017632
0.013885
0.011847
0.016603
0.028201
0.040807
0.049360
0.050528
0.043544
0.036397
0.041070
0.060160
0.072667
0.041373
0.023278
0.027327
0.032399
0.037950
0.043755
0.025232
0.052520
0.048916
0.016069
0.016222
0.045718
0.036744
0.031452
0.040775
0.060072
0.050916
0.048543
0.023396
0.016488
0.032801
0.032130
0.081464
0.079037
0.049381
0.052723
0.020619
0.017032
0.042922
0.052756
0.070035
0.067138
0.067788
0.070657
0.019947
0.020085
0.018032
0.017717
0.043664
0.016168
0.010624
0.032015
0.047415
0.053730
0.051157
0.041155
0.025862
0.010917
0.003657
0.009404
0.013933
0.044180
0.019374
0.016838
0.033730
0.048004
0.054139
0.051343
0.041084
0.026574
0.011880
0.002640
0.009225
0.014826
0.039517
0.012252
0.014007
0.034918
0.049634
0.055231
0.052072
0.041243
0.025152
0.009568
0.004457
0.011589
0.016564
0.042798
0.016358
0.013584
0.033566
0.048582
0.054332
0.051288
0.041061
0.023877
0.008627
0.007635
0.012869
0.016681
0.076754
0.074789
0.071387
0.073192
0.066900
0.073181
0.067993
0.074498
0.065939
0.071259
0.066396
0.071847
0.072506
0.071312
0.068540
0.069581
0.072104
0.073744
0.016563
0.056977
0.016829
0.032991
0.046310
0.005068
0.040700
0.013420
0.052921
0.008212
0.051231
0.022114
0.003034
0.028993
0.017704
0.059767
0.016201
0.057376
0.033918
0.019060
0.046431
0.005784
0.052739
0.005271
0.011757
0.040118
0.050990
0.023208
0.007472
0.029874
0.017141
0.060467
0.018535
0.018317
0.019239
0.017871
0.018830
0.054455
0.018178
0.016085
0.032679
0.046703
0.004786
0.052794
0.009045
0.053600
0.041903
0.014476
0.023842
0.002589
0.026980
0.058705
0.018753
0.017966
0.055840
0.018473
0.033745
0.046703
0.005032
0.041640
0.053370
0.051980
0.006175
0.012936
0.024503
0.007277
0.027931
0.017896
0.057606
0.022824
0.011129
0.019704
0.017488
0.021816
0.056163
0.023484
0.020269
0.017253
0.019480
0.004457
0.023602
0.021212
0.046663
0.020527
0.004300
0.011436
0.021415
0.018127
0.018905
0.022211
0.004388
0.025640
0.021263
0.054049
0.014133
0.047654
0.051294
0.029814
0.021135
0.023168
0.022026
0.020567
0.017342
0.020978
0.055817
0.011543
0.053193
0.031701
0.027428
0.028394
0.028481
0.010895
0.029328
0.022972
0.048282
0.010266
0.017471
0.024009
0.016576
0.027822
0.008625
0.054018
0.029826
0.020313
0.028405
0.004555
0.029526
0.021803
0.021823
0.037594
0.011202
0.013269
0.018500
0.022138
0.020945
0.012135
0.022479
0.012900
0.016343
0.023629
0.013944
0.022329
0.031571
0.016025
0.030434
0.055303
0.025224
0.046669
0.017682
0.033103
0.021016
0.022039
0.053684
0.041559
0.022220
0.020319
0.021634
0.022571
0.012103
0.020453
0.025917
0.019675
0.052427
0.019842
0.053390
0.016430
0.021966
0.016216
0.021589
0.053988
0.023229
0.036950
0.015790
0.044474
0.021084
0.023960
0.022109
0.053684
0.020267
0.006071
0.016605
0.024179
0.019586
0.007480
0.053824
0.053854
0.016022
0.034845
0.027756
0.020869
0.031309
0.006789
0.022122
0.014414
0.015293
0.015591
0.021304
0.053459
0.020790
0.021064
0.018526
0.018789
0.006172
0.018128
0.018884
0.041364
0.023746
0.004079
0.007618
0.020288
0.021055
0.018156
0.021892
0.007514
0.026864
0.022040
0.050068
0.015593
0.046620
0.049888
0.030156
0.014911
0.022180
0.021867
0.021032
0.011749
0.020439
0.053304
0.011191
0.051344
0.029360
0.020773
0.021879
0.035629
0.008140
0.030197
0.021449
0.047504
0.013448
0.014384
0.020486
0.018037
0.020687
0.011307
0.049778
0.023336
0.020771
0.035260
0.003831
0.032946
0.018782
0.025816
0.039878
0.013984
0.016090
0.018209
0.022081
0.022776
0.009773
0.021890
0.014683
0.018445
0.020156
0.017764
0.020994
0.024469
0.015887
0.029602
0.052704
0.019970
0.041465
0.017462
0.033950
0.020288
0.022137
0.061227
0.041297
0.018461
0.018415
0.019425
0.022125
0.007599
0.019852
0.027053
0.018436
0.050710
0.021151
0.061009
0.018800
0.021911
0.011729
0.025168
0.051666
0.021912
0.037233
0.016795
0.038940
0.015538
0.017274
0.021932
0.051733
0.014669
0.006358
0.015554
0.017733
0.016113
0.010848
0.050054
0.050039
0.018380
0.031154
0.022151
0.021247
0.024152
0.004220
0.028132
0.039084
0.023318
0.032651
0.044768
0.021890
0.021672
0.043997
0.021296
0.035203
0.035082
0.053395
0.050978
0.051295
0.048852
0.051789
0.052515
0.029448
0.029714
0.048399
0.048008
0.040052
0.015693
0.016209
0.016111
0.022683
0.012224
0.011793
0.044526
0.034522
0.049343
0.034827
0.049534
0.065848
0.064448
0.050979
0.022731
0.017803
0.013286
0.012358
0.020668
0.034048
0.046002
0.052066
0.050594
0.042581
0.037205
0.046909
0.064857
0.027510
0.030960
0.068833
0.042724
0.042062
0.044620
0.046648
0.035861
0.015017
0.017263
0.010256
0.024480
0.012783
0.021596
0.043532
0.045598
0.022135
0.025555
0.028368
0.029498
0.032300
0.032094
0.029406
0.031691
0.029207
0.030090
0.050830
0.022133
0.022364
0.022193
0.022052
0.021746
0.020959
0.021635
0.020956
0.021966
0.019936
0.018364
0.019683
0.019129
0.018777
0.020714
0.020419
0.021686
0.019549
0.021891
0.022605
0.019313
0.021902
0.014591
0.017433
0.018613
0.021092
0.030082
0.012235
0.012604
0.014863
0.015647
0.020434
0.021084
0.023067
0.016848
0.017939
0.016212
0.014901
0.021302
0.010189
0.010393
0.013360
0.016367
0.012263
0.024096
0.024392
0.026903
0.020641
0.022798
0.021232
0.016930
0.017257
0.019541
0.020720
0.021525
0.021361
0.021783
0.021544
0.020656
0.019308
0.020359
0.018751
0.021400
0.021428
0.016658
0.020345
0.019208
0.020677
0.049190
0.020919
0.020597
0.041167
0.015551
0.021703
0.019700
0.024499
0.026785
0.020166
0.011143
0.011230
0.030969
0.038321
0.035781
0.039194
0.022028
0.009058
0.009054
0.023253
0.018230
0.042731
0.020828
0.017116
0.027292
0.019486
0.020521
0.024425
0.053561
0.036473
0.023531
0.024463
0.025444
0.038913
0.036012
0.020554
0.019420
0.017872
0.022898
0.020367
0.019900
0.019143
0.032313
0.022825
0.020240
0.021322
0.020111
0.021496
0.021833
0.022393
0.020687
0.022653
0.024451
0.026463
0.022629
0.021751
0.019279
0.021888
0.023803
0.025968
0.024048
0.023724
0.022385
0.022092
0.021908
0.020569
0.023183
0.020840
0.019236
0.021494
0.018883
0.018932
0.020710
0.021796
0.018993
0.020824
0.018953
0.063214
