# vtk DataFile Version 2.0
Unstructured Grid Example
ASCII
DATASET UNSTRUCTURED_GRID
POINTS 1221 float
-0.000082 0.000342 -0.000775 
0.999918 0.000003 -0.000355 
1.000257 1.000003 0.009160 
0.000257 1.000342 0.008740 
-0.000103 -0.000134 0.049225 
0.999897 -0.000472 0.049645 
1.000236 0.999528 0.059160 
0.000236 0.999866 0.058740 
-0.000086 0.049866 0.049701 
-0.000069 0.099866 0.050177 
-0.000052 0.149866 0.050652 
-0.000035 0.199866 0.051128 
-0.000018 0.249866 0.051604 
-0.000001 0.299866 0.052080 
0.000016 0.349866 0.052555 
0.000033 0.399866 0.053031 
0.000050 0.449866 0.053507 
0.000067 0.499866 0.053983 
0.000083 0.549866 0.054458 
0.000100 0.599866 0.054934 
0.000117 0.649866 0.055410 
0.000134 0.699866 0.055886 
0.000151 0.749866 0.056362 
0.000168 0.799866 0.056837 
0.000185 0.849866 0.057313 
0.000202 0.899866 0.057789 
0.000219 0.949866 0.058265 
-0.000065 0.050342 -0.000299 
-0.000048 0.100342 0.000177 
-0.000031 0.150342 0.000652 
-0.000014 0.200342 0.001128 
0.000003 0.250342 0.001604 
0.000020 0.300342 0.002080 
0.000037 0.350342 0.002555 
0.000054 0.400342 0.003031 
0.000071 0.450342 0.003507 
0.000087 0.500342 0.003983 
0.000104 0.550342 0.004458 
0.000121 0.600342 0.004934 
0.000138 0.650342 0.005410 
0.000155 0.700342 0.005886 
0.000172 0.750342 0.006362 
0.000189 0.800342 0.006837 
0.000206 0.850342 0.007313 
0.000223 0.900342 0.007789 
0.000240 0.950342 0.008265 
-0.000092 0.000104 0.024225 
0.000246 1.000104 0.033740 
0.049897 -0.000151 0.049246 
0.099897 -0.000167 0.049267 
0.149897 -0.000184 0.049288 
0.199897 -0.000201 0.049309 
0.249897 -0.000218 0.049330 
0.299897 -0.000235 0.049351 
0.349897 -0.000252 0.049372 
0.399897 -0.000269 0.049393 
0.449897 -0.000286 0.049414 
0.499897 -0.000303 0.049435 
0.549897 -0.000320 0.049456 
0.599897 -0.000337 0.049477 
0.649897 -0.000354 0.049498 
0.699897 -0.000371 0.049519 
0.749897 -0.000388 0.049540 
0.799897 -0.000405 0.049561 
0.849897 -0.000422 0.049582 
0.899897 -0.000438 0.049603 
0.949897 -0.000455 0.049624 
0.049918 0.000325 -0.000754 
0.099918 0.000308 -0.000733 
0.149918 0.000291 -0.000712 
0.199918 0.000274 -0.000691 
0.249918 0.000257 -0.000670 
0.299918 0.000241 -0.000649 
0.349918 0.000224 -0.000628 
0.399918 0.000207 -0.000607 
0.449918 0.000190 -0.000586 
0.499918 0.000173 -0.000565 
0.549918 0.000156 -0.000544 
0.599918 0.000139 -0.000523 
0.649918 0.000122 -0.000502 
0.699918 0.000105 -0.000481 
0.749918 0.000088 -0.000460 
0.799918 0.000071 -0.000439 
0.849918 0.000054 -0.000418 
0.899918 0.000037 -0.000397 
0.949918 0.000020 -0.000376 
0.999908 -0.000234 0.024645 
0.999914 0.049528 0.050120 
0.999931 0.099528 0.050596 
0.999948 0.149528 0.051072 
0.999965 0.199528 0.051548 
0.999982 0.249528 0.052023 
0.999999 0.299528 0.052499 
1.000016 0.349528 0.052975 
1.000033 0.399528 0.053451 
1.000050 0.449528 0.053926 
1.000067 0.499528 0.054402 
1.000083 0.549528 0.054878 
1.000100 0.599528 0.055354 
1.000117 0.649528 0.055829 
1.000134 0.699528 0.056305 
1.000151 0.749528 0.056781 
1.000168 0.799528 0.057257 
1.000185 0.849528 0.057733 
1.000202 0.899528 0.058208 
1.000219 0.949528 0.058684 
0.999935 0.050003 0.000120 
0.999952 0.100003 0.000596 
0.999969 0.150003 0.001072 
0.999986 0.200003 0.001548 
1.000003 0.250003 0.002023 
1.000020 0.300003 0.002499 
1.000037 0.350003 0.002975 
1.000054 0.400003 0.003451 
1.000071 0.450003 0.003926 
1.000087 0.500003 0.004402 
1.000104 0.550003 0.004878 
1.000121 0.600003 0.005354 
1.000138 0.650003 0.005829 
1.000155 0.700003 0.006305 
1.000172 0.750003 0.006781 
1.000189 0.800003 0.007257 
1.000206 0.850003 0.007733 
1.000223 0.900003 0.008208 
1.000240 0.950003 0.008684 
1.000246 0.999766 0.034160 
0.950236 0.999545 0.059139 
0.900236 0.999562 0.059118 
0.850236 0.999578 0.059097 
0.800236 0.999595 0.059076 
0.750236 0.999612 0.059055 
0.700236 0.999629 0.059034 
0.650236 0.999646 0.059013 
0.600236 0.999663 0.058992 
0.550236 0.999680 0.058971 
0.500236 0.999697 0.058950 
0.450236 0.999714 0.058929 
0.400236 0.999731 0.058908 
0.350236 0.999748 0.058887 
0.300236 0.999765 0.058866 
0.250236 0.999782 0.058845 
0.200236 0.999799 0.058824 
0.150236 0.999816 0.058803 
0.100236 0.999833 0.058782 
0.050236 0.999849 0.058761 
0.950257 1.000020 0.009139 
0.900257 1.000037 0.009118 
0.850257 1.000054 0.009097 
0.800257 1.000071 0.009076 
0.750257 1.000088 0.009055 
0.700257 1.000105 0.009034 
0.650257 1.000122 0.009013 
0.600257 1.000139 0.008992 
0.550257 1.000156 0.008971 
0.500257 1.000173 0.008950 
0.450257 1.000190 0.008929 
0.400257 1.000207 0.008908 
0.350257 1.000224 0.008887 
0.300257 1.000241 0.008866 
0.250257 1.000257 0.008845 
0.200257 1.000274 0.008824 
0.150257 1.000291 0.008803 
0.100257 1.000308 0.008782 
0.050257 1.000325 0.008761 
0.024554 1.000154 0.027639 
0.020034 0.999998 0.044165 
0.975943 0.999832 0.028039 
0.980450 0.999673 0.044568 
0.481913 0.999941 0.033942 
0.775246 0.999842 0.034065 
0.675246 0.999876 0.034023 
0.525987 0.999926 0.033961 
0.725246 0.999859 0.034044 
0.625246 0.999893 0.034003 
0.075246 1.000079 0.033772 
0.225246 1.000028 0.033835 
0.575329 0.999909 0.033982 
0.175246 1.000045 0.033814 
0.125246 1.000062 0.033793 
0.875246 0.999808 0.034107 
0.825246 0.999825 0.034086 
0.375246 0.999977 0.033898 
0.918580 0.999793 0.034126 
0.275246 1.000011 0.033856 
0.325246 0.999994 0.033877 
0.425246 0.999960 0.033919 
0.500067 0.499697 0.054192 
0.292314 0.294718 0.052154 
0.707802 0.704702 0.056231 
0.709070 0.290381 0.052289 
0.291063 0.709013 0.056096 
0.501524 0.781110 0.056871 
0.784519 0.497605 0.054293 
0.499472 0.222944 0.051559 
0.224326 0.502536 0.054103 
0.168171 0.170476 0.050920 
0.830947 0.169267 0.051188 
0.830497 0.830577 0.057480 
0.169186 0.830127 0.057197 
0.563760 0.640296 0.055557 
0.436373 0.359098 0.052828 
0.642486 0.437257 0.053659 
0.353465 0.566783 0.054769 
0.640003 0.846440 0.057551 
0.360716 0.153495 0.050839 
0.151321 0.360372 0.052719 
0.846783 0.359763 0.053008 
0.846433 0.640869 0.055682 
0.641474 0.153256 0.050956 
0.358659 0.846138 0.057429 
0.153901 0.634675 0.055330 
0.678371 0.581115 0.055043 
0.560691 0.330498 0.052608 
0.439442 0.668896 0.055777 
0.321787 0.420106 0.053360 
0.533958 0.881693 0.057842 
0.465169 0.117585 0.050542 
0.882343 0.465217 0.054026 
0.119962 0.465440 0.053706 
0.744511 0.896191 0.058068 
0.107928 0.258081 0.051728 
0.258562 0.097585 0.050264 
0.896561 0.255252 0.052034 
0.889784 0.736600 0.056611 
0.736969 0.109979 0.050584 
0.263164 0.889415 0.057801 
0.110412 0.738344 0.056299 
0.601139 0.739688 0.056519 
0.398994 0.259706 0.051866 
0.745277 0.404244 0.053388 
0.251775 0.597594 0.055019 
0.598460 0.520580 0.054433 
0.398088 0.474727 0.053912 
0.611753 0.253615 0.051898 
0.388245 0.745590 0.056485 
0.097528 0.094626 0.050168 
0.902330 0.094354 0.050506 
0.905410 0.901961 0.058191 
0.098769 0.905260 0.057882 
0.437045 0.902801 0.058001 
0.903170 0.562718 0.054962 
0.563088 0.096593 0.050384 
0.097006 0.562991 0.054624 
0.258637 0.202089 0.051259 
0.742007 0.796882 0.057122 
0.797191 0.257763 0.052016 
0.209188 0.745251 0.056406 
0.196188 0.278768 0.051962 
0.798332 0.715695 0.056374 
0.714609 0.206240 0.051491 
0.285524 0.793154 0.056894 
0.502111 0.411623 0.053355 
0.497344 0.588038 0.055032 
0.240860 0.365179 0.052803 
0.759267 0.634007 0.055580 
0.689624 0.500355 0.054279 
0.645977 0.344957 0.052782 
0.308840 0.504667 0.054159 
0.354152 0.654396 0.055603 
0.080205 0.183183 0.051003 
0.176974 0.084095 0.050101 
0.817800 0.918747 0.058314 
0.919116 0.181964 0.051346 
0.917384 0.820543 0.057422 
0.820913 0.082379 0.050357 
0.081017 0.817430 0.057039 
0.185525 0.914017 0.058002 
0.652014 0.655100 0.055735 
0.348105 0.344316 0.052650 
0.514164 0.696232 0.056068 
0.485969 0.303162 0.052316 
0.610410 0.916835 0.058208 
0.389431 0.082778 0.050179 
0.078421 0.394462 0.053013 
0.917150 0.389479 0.053320 
0.925084 0.660050 0.055898 
0.660420 0.074680 0.050216 
0.339953 0.924761 0.058169 
0.074570 0.661283 0.055550 
0.431376 0.821505 0.057225 
0.821079 0.565468 0.054954 
0.568541 0.177585 0.051156 
0.179656 0.566721 0.054695 
0.190462 0.431313 0.053411 
0.573875 0.817990 0.057252 
0.426640 0.178707 0.051107 
0.821685 0.426507 0.053632 
0.565523 0.457234 0.053816 
0.435407 0.541822 0.054566 
0.774289 0.330835 0.052702 
0.225597 0.668040 0.055678 
0.667721 0.780821 0.056938 
0.333275 0.218144 0.051443 
0.677551 0.929975 0.058362 
0.068554 0.317737 0.052279 
0.322641 0.069423 0.050023 
0.930344 0.322212 0.052686 
0.745789 0.559205 0.054863 
0.447983 0.736113 0.056420 
0.551955 0.263007 0.051962 
0.614222 0.594507 0.055143 
0.386018 0.405663 0.053250 
0.258642 0.443042 0.053551 
0.585470 0.392567 0.053209 
0.414663 0.606827 0.055176 
0.450668 0.427769 0.053487 
0.548711 0.571875 0.054900 
0.484994 0.934392 0.058322 
0.934761 0.514769 0.054520 
0.515139 0.065002 0.050063 
0.065382 0.515064 0.054155 
0.500365 0.838207 0.057414 
0.838016 0.506871 0.054404 
0.500289 0.151937 0.050884 
0.153616 0.501029 0.054059 
0.696859 0.842500 0.057537 
0.303861 0.156573 0.050845 
0.842351 0.302406 0.052460 
0.149480 0.701964 0.055969 
0.159571 0.231021 0.051492 
0.842118 0.772773 0.056935 
0.773143 0.157646 0.051053 
0.226990 0.841748 0.057332 
0.669952 0.237819 0.051772 
0.330166 0.761554 0.056612 
0.696918 0.355353 0.052902 
0.303215 0.644041 0.055483 
0.939720 0.606066 0.055390 
0.606436 0.060043 0.050054 
0.394004 0.939410 0.058332 
0.060420 0.606469 0.055023 
0.700300 0.432932 0.053642 
0.303974 0.558384 0.054668 
0.054336 0.053957 0.049763 
0.945495 0.053655 0.050137 
0.946109 0.945125 0.058619 
0.054746 0.945763 0.058249 
0.772961 0.945592 0.058551 
0.055625 0.232151 0.051459 
0.226791 0.054045 0.049837 
0.945327 0.771179 0.056964 
0.771549 0.054436 0.050070 
0.229184 0.944672 0.058312 
0.946502 0.226633 0.051783 
0.055121 0.771484 0.056590 
0.219939 0.159954 0.050841 
0.775484 0.847093 0.057614 
0.847457 0.224280 0.051719 
0.155802 0.774531 0.056662 
0.553411 0.947481 0.058476 
0.947785 0.446503 0.053876 
[...]
POINT_DATA 1221
SCALARS u float 1
LOOKUP_TABLE default
0.008757
0.003754
0.094292
0.090046
0.008160
0.006174
0.094411
0.089982
0.003485
0.002387
0.006873
0.011695
0.016562
0.021444
0.026332
0.031223
0.036117
0.041011
0.045907
0.050803
0.055699
0.060596
0.065493
0.070391
0.075288
0.080186
0.085084
0.004724
0.003993
0.007587
0.012132
0.016876
0.021688
0.026533
0.031394
0.036265
0.041143
0.046025
0.050911
0.055799
0.060688
0.065579
0.070471
0.075364
0.080258
0.085152
0.008102
0.089981
0.007982
0.007809
0.007642
0.007482
0.007328
0.007183
0.007045
0.006915
0.006794
0.006683
0.006581
0.006490
0.006410
0.006340
0.006282
0.006236
0.006202
0.006180
0.006171
0.008491
0.008225
0.007961
0.007697
0.007434
0.007173
0.006912
0.006653
0.006395
0.006140
0.005886
0.005634
0.005385
0.005139
0.004896
0.004657
0.004422
0.004193
0.003970
0.004483
0.005093
0.007858
0.012065
0.016654
0.021381
0.026171
0.030996
0.035840
0.040698
0.045564
0.050436
0.055314
0.060194
0.065078
0.069963
0.074850
0.079739
0.084629
0.089520
0.001407
0.006154
0.011034
0.015926
0.020821
0.025717
0.030614
0.035512
0.040410
0.045308
0.050206
0.055104
0.060002
0.064901
0.069799
0.074698
0.079596
0.084495
0.089393
0.094320
0.094187
0.093963
0.093739
0.093516
0.093293
0.093070
0.092847
0.092625
0.092403
0.092182
0.091960
0.091739
0.091518
0.091298
0.091078
0.090858
0.090639
0.090419
0.090200
0.094077
0.093861
0.093646
0.093432
0.093218
0.093004
0.092790
0.092577
0.092364
0.092152
0.091940
0.091728
0.091517
0.091305
0.091095
0.090884
0.090674
0.090465
0.090255
0.090094
0.090059
0.094201
0.094262
0.092055
0.093332
0.092896
0.092246
0.093114
0.092678
0.090302
0.090946
0.092460
0.090731
0.090516
0.093771
0.093551
0.091593
0.093961
0.091161
0.091377
0.091809
0.043258
0.022296
0.064247
0.023867
0.062787
0.070789
0.044369
0.016343
0.042280
0.009675
0.012960
0.077115
0.074103
0.057293
0.029242
0.037822
0.049149
0.077806
0.009045
0.028048
0.031249
0.058641
0.010490
0.076514
0.054896
0.052031
0.027044
0.059528
0.034665
0.080780
0.006363
0.041669
0.038179
0.083145
0.017865
0.003618
0.021410
0.068195
0.007223
0.080327
0.064854
0.067185
0.019402
0.035088
0.051705
0.045751
0.040351
0.019845
0.066803
0.002542
0.006930
0.084437
0.081150
0.082412
0.051272
0.005219
0.047624
0.013155
0.073418
0.021157
0.065969
0.020292
0.065734
0.015824
0.071000
0.034669
0.051881
0.028928
0.057571
0.044197
0.028854
0.042871
0.057725
0.010464
0.002375
0.085683
0.014597
0.076528
0.005661
0.072469
0.082391
0.059142
0.027389
0.062540
0.024033
0.084563
0.003382
0.031048
0.034469
0.060876
0.004371
0.084129
0.057148
0.074428
0.051160
0.012372
0.048359
0.035160
0.074724
0.011755
0.037615
0.039414
0.047080
0.028097
0.058483
0.071510
0.015066
0.086150
0.023503
0.002640
0.028017
0.050201
0.066144
0.020460
0.053046
0.033550
0.036617
0.033200
0.053343
0.036006
0.050535
0.085719
0.046743
0.003340
0.042791
0.076372
0.045521
0.009626
0.041813
0.077677
0.009040
0.025677
0.061465
0.015476
0.071514
0.011588
0.075498
0.018614
0.068106
0.030106
0.056482
0.055672
0.003633
0.085805
0.051718
0.037671
0.048104
0.003027
0.004954
0.088844
0.084922
0.088108
0.015096
0.002877
0.071829
0.004219
0.085587
0.018934
0.067854
0.008933
0.078481
0.018209
0.068599
0.087307
0.040156
0.003197
0.035458
0.023249
0.063937
0.010351
0.076730
0.067602
0.018835
0.029348
0.057213
0.033396
0.061447
0.025100
0.027418
0.059127
0.064534
0.022019
0.005606
0.003182
0.010355
0.088664
0.004545
0.081192
0.077104
0.085973
0.042925
0.039314
0.047482
0.053207
0.025171
0.061427
0.040179
0.079640
0.007338
0.036430
0.018868
0.067622
0.020365
0.066405
0.023860
0.062605
0.072708
0.013962
0.032922
0.066077
0.003969
0.062127
0.086028
0.004893
0.008640
0.079414
0.078897
0.072385
0.014383
0.047810
0.044330
0.013022
0.073741
0.016210
0.070714
0.023432
0.063204
0.080884
0.056625
0.006545
0.053124
0.055920
0.043544
0.042894
0.033590
0.052932
0.025607
0.060927
0.014335
0.072498
0.011503
0.081734
0.005352
0.028697
0.087618
0.051238
0.003671
0.047110
0.075109
0.008934
0.078434
0.081364
0.046345
0.005870
0.042728
0.026683
0.070282
0.016406
0.039246
0.047258
0.030473
0.088348
0.019981
0.003233
0.024147
0.081439
0.014963
0.072033
0.055403
0.031161
0.044697
0.037675
0.088473
0.027751
0.003485
0.032040
0.032808
0.048758
0.053927
0.007195
0.082913
0.011215
0.076059
0.004519
0.068935
0.017576
0.024326
0.062384
0.009749
0.004183
0.014364
0.089955
0.076927
0.004407
0.072748
0.086538
0.063674
0.022872
0.057932
0.045419
0.037956
0.047193
0.039319
0.029509
0.057057
0.048523
0.033523
0.032408
0.054129
0.066465
0.062624
0.023954
0.020148
0.056630
0.029906
0.054711
0.031927
0.088117
0.062218
0.004220
0.058051
0.070743
0.015538
0.060997
0.079859
0.007492
0.083495
0.017749
0.069064
0.076851
0.013255
0.041290
0.088265
0.032238
0.003495
0.036713
0.077865
0.049717
0.009017
0.046165
0.077273
0.054073
0.009711
0.050805
0.021890
0.014122
0.030978
0.055609
0.041402
0.046020
0.035711
0.050818
0.072514
0.006863
0.080830
0.037991
0.081687
0.005452
0.032348
0.033141
0.053455
0.037199
0.043733
0.003951
0.088690
0.039438
0.028485
0.058084
0.064211
0.006230
0.081459
0.072458
0.001931
0.004147
0.006843
0.090035
0.004642
0.085480
0.081428
0.086512
0.034470
0.074790
0.013142
0.003886
0.026746
0.059865
0.036844
0.049130
0.060907
0.024799
0.061740
0.073217
0.013455
0.044423
0.009508
0.040561
0.083907
0.038557
0.060290
0.026260
0.032980
0.053556
0.044583
0.040599
0.068736
0.017840
0.040429
0.089856
0.023867
0.004389
0.028317
0.076287
0.034633
0.010508
0.047649
0.004392
0.043364
0.089218
0.016853
0.069882
0.053173
0.025380
0.061757
0.006070
0.011938
0.073274
0.036523
0.049818
0.069807
0.016414
0.016445
0.070477
0.033835
0.052253
0.019384
0.067640
0.012171
0.074830
0.023489
0.063109
0.035946
0.041393
0.007363
0.079079
0.022167
0.064546
0.082954
0.004258
0.025041
0.039920
0.058861
0.004147
0.054673
0.088256
0.005392
0.004965
0.091527
0.087349
0.017384
0.069328
0.048804
0.055725
0.030866
0.027250
0.059371
0.059251
0.027313
0.030612
0.084651
0.031094
0.003232
0.002365
0.006224
0.080543
0.082692
0.020483
0.066225
0.047293
0.039137
0.019725
0.051443
0.084645
0.042810
0.003571
0.038843
0.091926
0.092413
0.002372
0.003949
0.047163
0.023393
0.072286
0.077182
0.082078
0.086975
0.018531
0.013696
0.008929
0.005009
0.028268
0.042852
0.038036
0.033149
0.052708
0.057601
0.067391
0.062496
0.004243
0.005130
0.008080
0.007951
0.005861
0.006854
0.004736
0.004861
0.004624
0.004998
0.007296
0.007519
0.007073
0.007721
0.006430
0.006031
0.006640
0.006226
0.005474
0.005306
0.005147
0.005651
0.043171
0.022301
0.064153
0.023579
0.062797
0.070735
0.044341
0.015717
0.042627
0.009858
0.012129
0.077207
0.074254
0.057354
0.028876
0.037240
0.049135
0.077759
0.008934
0.028149
0.030955
0.058469
0.009932
0.076509
0.054949
0.051774
0.034661
0.026885
0.059495
0.080715
0.005962
0.041530
0.038227
0.083191
0.017952
0.003797
0.020957
0.068160
0.006061
0.080393
0.065036
0.067258
0.018940
0.033881
0.052366
0.046062
0.040317
0.019550
0.066845
0.003656
0.005206
0.084354
0.081265
0.082360
0.051137
0.004300
0.047766
0.013247
0.073334
0.020758
0.066053
0.020320
0.065611
0.015376
0.071046
0.034574
0.051843
0.028969
0.057442
0.043818
0.042584
0.028296
0.058079
0.010804
0.003145
0.085659
0.013879
0.076391
0.003751
0.072508
0.082440
0.059037
0.062765
0.027178
0.023991
0.084522
0.002892
0.031198
0.034168
0.060688
0.002613
0.084118
0.057204
0.074405
0.051018
0.012031
0.048599
0.035220
0.074681
0.011866
0.037511
0.039335
0.047019
0.071400
0.027814
0.058512
0.015036
0.086150
0.023699
0.002481
0.027637
0.050056
0.066141
0.020254
0.052876
0.033560
0.036726
0.033111
0.053263
0.035921
0.050458
0.085695
0.046497
0.001940
0.042871
0.076390
0.045349
0.010112
0.041887
0.077589
0.009038
0.025320
0.061565
0.015611
0.071393
0.010870
0.075524
0.018251
0.068198
0.030328
0.056047
0.055486
0.001648
0.085759
0.051800
0.040809
0.045604
0.004181
0.001617
0.088696
0.084919
0.088019
0.015375
0.003219
0.071702
0.001272
0.085660
0.018370
0.067927
0.009109
0.078333
0.017707
0.068621
0.087265
0.039887
0.002268
0.035585
0.023288
0.063792
0.009670
0.076806
0.064451
0.018886
0.029178
0.057327
0.033405
0.067756
0.022109
0.027424
0.059023
0.061670
0.023723
0.006318
0.003969
0.009273
0.088529
0.001136
0.081012
0.077121
0.085954
0.047071
0.039335
0.053374
0.024934
0.061446
0.034664
0.051699
0.079587
0.007131
0.036239
0.018915
0.067518
0.019998
0.066432
0.023936
0.062446
0.013864
0.072645
0.032672
0.065927
0.001265
0.062212
0.086047
0.005435
0.007479
0.079277
0.078932
0.072377
0.014034
0.041956
0.044423
0.013160
0.073602
0.015699
0.070733
0.023081
0.063304
0.080866
0.056457
0.005664
0.053197
0.055773
0.043515
0.042841
0.025636
0.060791
0.013898
0.072520
0.011786
0.081720
0.005251
0.028353
0.087591
0.051030
0.002121
0.047214
0.074955
0.007920
0.078450
0.081332
0.046151
0.005316
0.042812
0.026831
0.070267
0.016142
0.039164
0.047227
0.030583
0.088375
0.020186
0.003313
0.023803
0.048236
0.081256
0.014344
0.072040
0.055374
0.031033
0.037725
0.039255
0.047128
0.088448
0.027934
0.003150
0.031695
0.032834
0.048512
0.053777
0.007650
0.082825
0.010280
0.076117
0.004850
0.017596
0.068838
0.024011
0.062414
0.010220
0.004610
0.013569
0.089868
0.076782
0.001221
0.072809
0.086571
0.057995
0.060971
0.026531
0.037287
0.045777
0.038014
0.040771
0.047130
0.039246
0.029348
0.032998
0.057031
0.053375
0.048439
0.033580
0.032279
0.054103
0.066479
0.062622
0.019993
0.023815
0.056582
0.054501
0.031913
0.088115
0.062037
0.002237
0.058133
0.015728
0.070745
0.060835
0.079865
0.006617
0.083411
0.017186
0.069126
0.076825
0.009734
0.040653
0.088222
0.032390
0.002890
0.036413
0.077842
0.049547
0.008654
0.046259
0.077254
0.053914
0.009208
0.050909
0.022034
0.014349
0.030229
0.056079
0.035607
0.050774
0.072393
0.005532
0.080869
0.038102
0.081638
0.005239
0.032053
0.043478
0.003046
0.088656
0.039557
0.074692
0.028183
0.058147
0.064070
0.005025
0.081482
0.014049
0.003546
0.004929
0.004940
0.089922
0.000793
0.085348
0.081484
0.086554
0.034566
0.026405
0.013149
0.003264
0.061664
0.027069
0.059306
0.072483
0.037272
0.049100
0.060994
0.073192
0.013250
0.044607
0.024758
0.041194
0.083860
0.038310
0.064339
0.022784
0.032909
0.053490
0.041810
0.044560
0.018352
0.068679
0.089819
0.024069
0.004283
0.027933
0.076233
0.034408
0.030127
0.010414
0.047412
0.003404
0.043475
0.089192
0.016504
0.069904
0.053038
0.073160
0.025050
0.061822
0.006396
0.011892
0.036481
0.049909
0.069694
0.015937
0.016533
0.070511
0.030946
0.055427
0.019558
0.067526
0.011544
0.074867
0.023332
0.063054
0.050469
0.035928
0.007463
0.079073
0.021746
0.064721
0.082948
0.004283
0.024638
0.039930
0.058650
0.002349
0.054740
0.088212
0.006184
0.001265
0.091403
0.087400
0.017118
0.069306
0.055578
0.030840
0.027042
0.059326
0.037060
0.049190
0.059272
0.027186
0.030715
0.084613
0.030762
0.002924
0.003342
0.004417
0.080413
0.082734
0.020136
0.066265
0.047294
0.039081
0.019909
0.084605
0.042580
0.002610
0.038939
0.087582
0.088041
0.005865
0.006114
0.042799
0.018982
0.067939
0.072837
0.077735
0.082634
0.014098
0.009238
0.004498
0.001263
0.023873
0.038556
0.028766
0.033660
0.053246
0.048349
0.063042
0.058144
