# vtk DataFile Version 2.0
Unstructured Grid Example
ASCII
DATASET UNSTRUCTURED_GRID
POINTS 1221 float
0.002363 0.005066 -0.022006 
1.002647 -0.001594 0.012851 
1.001937 0.997193 -0.004299 
0.001378 1.005879 0.015306 
-0.000319 -0.005894 0.027952 
0.999719 0.003335 0.062787 
1.000332 1.001252 0.045715 
0.000418 0.994667 0.065350 
-0.000508 0.044319 0.040282 
0.000065 0.095091 0.052220 
0.000040 0.147595 0.060785 
-0.000203 0.200046 0.062212 
-0.000374 0.253438 0.057342 
-0.000433 0.304306 0.047852 
-0.000248 0.353670 0.038551 
-0.000653 0.401135 0.032839 
-0.000027 0.447903 0.034892 
0.000366 0.496331 0.043184 
0.000766 0.545918 0.053814 
0.000638 0.597044 0.062172 
0.000858 0.650519 0.063381 
-0.000097 0.703564 0.055884 
-0.000940 0.753180 0.044237 
-0.001037 0.801535 0.036691 
-0.001302 0.848683 0.035033 
-0.000903 0.896412 0.041993 
-0.000110 0.944754 0.053231 
0.001336 0.054792 -0.009758 
0.000538 0.104782 0.002651 
-0.000216 0.152731 0.010682 
-0.000517 0.199850 0.012340 
0.000170 0.248266 0.007241 
0.000246 0.297057 -0.001762 
0.000675 0.347545 -0.011601 
0.001644 0.399752 -0.017091 
0.001784 0.452281 -0.015030 
0.002055 0.503581 -0.006924 
0.001429 0.552369 0.003580 
0.000348 0.600841 0.012011 
-0.000280 0.647880 0.013575 
-0.000345 0.695857 0.005676 
0.000416 0.745856 -0.005392 
0.000960 0.798430 -0.013884 
0.001100 0.851533 -0.014696 
0.001270 0.904625 -0.008181 
0.001235 0.955746 0.003181 
0.001047 -0.000376 0.003249 
0.000920 1.000278 0.040148 
0.049755 -0.004742 0.032018 
0.099295 -0.003182 0.037117 
0.149519 -0.002186 0.040824 
0.200015 -0.001427 0.043090 
0.250356 -0.001586 0.043649 
0.300283 -0.001455 0.043604 
0.350149 -0.000832 0.044433 
0.399539 -0.000610 0.046259 
0.449289 -0.000173 0.048944 
0.499339 0.000222 0.051987 
0.549682 0.000631 0.054176 
0.600189 0.000537 0.054824 
0.650716 0.000400 0.053789 
0.700934 -0.000012 0.051771 
0.750742 0.000008 0.050180 
0.800228 0.000153 0.050101 
0.849910 0.000492 0.051904 
0.899696 0.001175 0.055044 
0.949764 0.002365 0.059260 
0.052441 0.005162 -0.017916 
0.102215 0.004305 -0.013090 
0.151130 0.002646 -0.009888 
0.200218 0.001860 -0.006844 
0.250050 0.001638 -0.006283 
0.300292 0.001428 -0.006420 
0.350811 0.001112 -0.005520 
0.401313 0.000786 -0.003806 
0.451516 0.000511 -0.001034 
0.501302 0.000175 0.001891 
0.550654 -0.000117 0.004159 
0.600060 -0.000432 0.004670 
0.649430 -0.000856 0.003834 
0.699364 -0.001203 0.001839 
0.749921 -0.001493 0.000230 
0.800908 -0.001727 0.000321 
0.851746 -0.001777 0.001884 
0.902362 -0.001823 0.005136 
0.952715 -0.002019 0.009090 
1.001179 0.000855 0.037667 
0.999454 0.053010 0.057217 
0.999460 0.102391 0.051403 
0.999409 0.150925 0.048156 
0.999227 0.199772 0.046754 
0.999395 0.248879 0.047848 
0.999685 0.298624 0.050333 
0.999969 0.348580 0.053362 
1.000279 0.399720 0.054612 
1.000734 0.450886 0.053498 
1.001026 0.501535 0.050520 
1.001014 0.551443 0.047717 
1.000692 0.600545 0.046909 
1.000214 0.649654 0.049171 
0.999552 0.699719 0.052755 
0.998836 0.749641 0.056386 
0.998643 0.799816 0.058479 
0.998835 0.850490 0.057501 
0.999456 0.900950 0.054310 
0.999831 0.951183 0.049976 
1.001700 0.048470 0.006950 
1.000856 0.098407 0.001359 
0.999884 0.149521 -0.002256 
0.999652 0.199918 -0.003236 
0.999612 0.250383 -0.002243 
0.999936 0.300711 0.000380 
1.000391 0.350335 0.003395 
1.001006 0.399659 0.004763 
1.001392 0.448955 0.003507 
1.001570 0.498999 0.000641 
1.001425 0.549763 -0.002229 
1.001024 0.600914 -0.002954 
1.000808 0.651704 -0.001011 
1.000580 0.701889 0.002813 
1.000578 0.751418 0.006351 
1.000669 0.800077 0.008116 
1.000800 0.848449 0.007590 
1.001040 0.897622 0.004244 
1.001494 0.947168 0.000033 
1.001132 0.999224 0.020763 
0.950272 1.001499 0.044383 
0.900472 1.001326 0.043585 
0.850838 1.001350 0.043346 
0.800850 1.001253 0.044251 
0.751020 1.001196 0.046102 
0.700722 1.000882 0.048365 
0.650579 1.000705 0.050923 
0.600289 1.000104 0.052659 
0.549866 1.000000 0.053099 
0.499598 0.999846 0.052304 
0.449644 0.999652 0.051281 
0.400110 0.999101 0.050923 
0.350746 0.998903 0.052290 
0.301050 0.998505 0.054736 
0.251015 0.997637 0.058157 
0.200815 0.997162 0.061068 
0.150450 0.996859 0.063209 
0.100222 0.995915 0.064097 
0.050371 0.994662 0.065240 
0.951796 0.997877 -0.005484 
0.901353 0.998318 -0.006402 
0.850866 0.999112 -0.006626 
0.800103 0.999422 -0.005528 
0.749545 0.999682 -0.003861 
0.699336 0.999809 -0.001673 
0.649290 0.999783 0.000967 
0.599843 1.000198 0.002652 
0.550239 1.000249 0.003087 
0.500566 1.000284 0.002298 
0.450560 1.000190 0.001232 
0.400218 1.000665 0.000997 
0.349823 1.000830 0.002199 
0.299239 1.001371 0.004722 
0.249301 1.002151 0.008219 
0.199678 1.002466 0.011294 
0.150308 1.002221 0.012938 
0.100672 1.003701 0.014185 
0.051267 1.004862 0.015112 
0.025337 1.001300 0.034206 
0.020436 0.997822 0.050771 
0.977012 0.998983 0.013961 
0.980981 1.000227 0.030602 
0.481766 1.000066 0.026839 
0.775405 1.000403 0.020129 
0.675198 1.000302 0.024723 
0.525822 1.000109 0.027833 
0.725247 1.000393 0.022160 
0.625086 1.000080 0.027071 
0.075693 0.999743 0.040025 
0.225312 0.999765 0.034929 
0.575142 1.000155 0.028134 
0.175150 0.999954 0.037184 
0.125424 0.999912 0.038694 
0.875832 0.999902 0.018369 
0.825784 1.000271 0.018718 
0.375101 0.999893 0.026317 
0.919300 0.999730 0.018788 
0.275317 0.999807 0.031677 
0.325282 0.999894 0.028244 
0.425173 0.999855 0.026065 
0.499095 0.499832 0.050664 
0.292341 0.294900 0.049699 
0.707490 0.704579 0.048338 
0.708623 0.290513 0.051723 
0.291102 0.710620 0.049454 
0.500916 0.781292 0.049598 
0.785128 0.498631 0.048540 
0.498980 0.223559 0.048661 
0.224174 0.501713 0.050131 
0.168190 0.170178 0.059642 
0.830576 0.169286 0.045430 
0.829645 0.831497 0.051503 
0.168573 0.829674 0.043358 
0.563404 0.640477 0.050747 
0.435277 0.359219 0.046398 
0.641938 0.437993 0.052794 
0.353286 0.566992 0.052749 
0.639801 0.846803 0.052146 
0.361142 0.153889 0.050387 
0.150766 0.361426 0.043451 
0.846869 0.360114 0.052613 
0.846476 0.640944 0.046119 
0.641817 0.153799 0.050178 
0.358167 0.846060 0.045319 
0.154609 0.635505 0.060763 
0.678403 0.581134 0.048062 
0.559576 0.330782 0.050301 
0.438918 0.669322 0.050802 
0.321037 0.420975 0.046984 
0.533509 0.881909 0.051591 
0.465339 0.118355 0.050384 
0.883124 0.466721 0.050891 
0.119961 0.463843 0.042639 
0.744463 0.897501 0.049617 
0.107390 0.259791 0.056469 
0.259218 0.097072 0.051495 
0.895989 0.255195 0.047538 
0.888886 0.736715 0.051536 
0.737443 0.109650 0.047415 
0.262830 0.888945 0.047675 
0.110097 0.739916 0.048600 
0.600787 0.739567 0.050737 
0.398607 0.260187 0.047506 
0.745501 0.405022 0.053382 
0.252516 0.598133 0.057582 
0.597927 0.520899 0.051156 
0.397371 0.474691 0.048848 
0.611214 0.253832 0.050538 
0.387598 0.746519 0.046847 
0.097860 0.093489 0.053072 
0.902321 0.094947 0.048514 
0.904941 0.903080 0.050338 
0.098273 0.903093 0.047633 
0.436474 0.902954 0.048613 
0.903937 0.563673 0.046006 
0.563386 0.097391 0.052297 
0.097601 0.560912 0.057356 
0.258886 0.202063 0.055027 
0.741582 0.797080 0.050485 
0.797009 0.257865 0.048812 
0.208855 0.746255 0.047416 
0.196375 0.279029 0.053671 
0.797957 0.715688 0.048390 
0.714661 0.206221 0.048790 
0.285187 0.793001 0.044281 
0.500859 0.411708 0.049016 
0.496672 0.588309 0.051528 
0.240425 0.365775 0.046841 
0.759363 0.634064 0.046206 
0.689824 0.501121 0.050019 
0.645249 0.345259 0.053014 
0.308742 0.504505 0.050328 
0.354107 0.655762 0.051978 
0.079998 0.183131 0.062056 
0.177133 0.082360 0.051444 
0.817586 0.920171 0.047705 
0.918457 0.182205 0.045851 
0.916333 0.821628 0.054489 
0.821079 0.082737 0.047080 
0.079999 0.817464 0.038547 
0.185190 0.911950 0.051159 
0.651883 0.654963 0.048617 
0.347523 0.344507 0.046665 
0.513464 0.696784 0.050668 
0.484882 0.303466 0.047467 
0.609992 0.917217 0.052819 
0.389651 0.082864 0.048731 
0.078008 0.394947 0.036448 
0.917598 0.389802 0.053566 
0.925191 0.660334 0.048152 
0.661319 0.075227 0.051329 
0.340012 0.924049 0.048348 
0.075017 0.663151 0.061651 
0.430678 0.821696 0.047199 
0.821772 0.566131 0.045594 
0.568533 0.178296 0.050405 
0.180198 0.565192 0.057767 
0.190451 0.431699 0.043676 
0.573323 0.818201 0.051645 
0.426772 0.179205 0.049107 
0.822232 0.427767 0.052065 
0.564319 0.457573 0.051362 
0.434614 0.541973 0.051170 
0.774281 0.331100 0.052449 
0.226025 0.669743 0.055563 
0.667393 0.780823 0.050882 
0.333527 0.218396 0.050739 
0.677745 0.930875 0.050908 
0.068310 0.319653 0.046069 
0.323411 0.068483 0.048045 
0.930119 0.321767 0.051300 
0.746117 0.559391 0.046781 
0.447282 0.736863 0.048814 
0.551157 0.263501 0.049492 
0.614064 0.594674 0.049811 
0.385217 0.405556 0.046777 
0.258204 0.443188 0.046436 
0.584314 0.392926 0.051797 
0.414135 0.607313 0.051942 
0.449733 0.427794 0.048081 
0.548083 0.572120 0.051226 
0.484394 0.934581 0.050927 
0.935776 0.516358 0.048685 
0.515021 0.065892 0.052032 
0.066224 0.512888 0.048218 
0.499893 0.838375 0.049992 
0.838758 0.508260 0.047906 
0.500331 0.152664 0.050195 
0.153639 0.499291 0.048603 
0.696767 0.843149 0.051269 
0.304400 0.156945 0.052470 
0.842191 0.302313 0.050207 
0.149642 0.703552 0.054175 
0.159353 0.232141 0.058797 
0.841120 0.772965 0.051455 
0.773238 0.157407 0.046265 
0.226588 0.841267 0.045065 
0.669843 0.237887 0.050360 
0.329617 0.762229 0.045355 
0.696627 0.355679 0.053598 
0.303596 0.645551 0.054154 
0.940295 0.607089 0.046236 
0.606810 0.060709 0.053271 
0.393808 0.939000 0.048714 
0.060835 0.604349 0.062789 
0.700254 0.433805 0.052887 
0.304218 0.558177 0.053971 
0.054117 0.049658 0.043209 
0.944967 0.056120 0.054076 
0.945795 0.946897 0.048439 
0.054494 0.941223 0.053770 
0.773007 0.947059 0.047091 
0.055091 0.234028 0.059872 
0.227536 0.053182 0.048080 
0.943950 0.771403 0.055350 
0.772165 0.054744 0.047835 
0.229568 0.942685 0.053722 
0.945734 0.226934 0.046588 
0.054032 0.773506 0.041437 
0.220297 0.159992 0.056823 
0.774949 0.848328 0.050464 
0.847158 0.224194 0.046578 
0.155090 0.774468 0.044495 
0.553049 0.947819 0.052794 
[...]
POINT_DATA 1221
SCALARS u float 1
LOOKUP_TABLE default
0.262172
0.152616
0.063362
0.189990
0.263551
0.152622
0.051687
0.187706
0.130121
0.062219
0.127596
0.141037
0.093709
0.055785
0.138855
0.198739
0.176125
0.089484
0.065110
0.144822
0.154939
0.079444
0.076775
0.155163
0.174142
0.101848
0.071155
0.126473
0.063444
0.127339
0.142622
0.085995
0.039707
0.137147
0.198282
0.176740
0.093089
0.052245
0.139093
0.158686
0.081240
0.078669
0.161723
0.171083
0.109504
0.077169
0.251493
0.175262
0.214749
0.153441
0.109064
0.081472
0.075697
0.075808
0.065020
0.044087
0.014834
0.024311
0.048907
0.056093
0.044764
0.023121
0.008814
0.003374
0.022730
0.059907
0.110386
0.217130
0.161154
0.118917
0.081938
0.074973
0.076018
0.065695
0.047371
0.021997
0.026588
0.048638
0.054163
0.045834
0.026413
0.017468
0.022826
0.036065
0.068587
0.111993
0.147235
0.090506
0.032620
0.024777
0.038614
0.028881
0.016743
0.042140
0.053451
0.042521
0.022150
0.033310
0.037115
0.010658
0.032392
0.075068
0.099170
0.087841
0.051351
0.013800
0.084491
0.026115
0.026665
0.037598
0.026661
0.009332
0.039651
0.056355
0.045206
0.022740
0.030669
0.037615
0.024713
0.039701
0.075439
0.094039
0.089928
0.057438
0.036978
0.051428
0.067202
0.075839
0.078990
0.068648
0.048531
0.023019
0.014989
0.030908
0.035821
0.027066
0.015869
0.014933
0.030557
0.058611
0.098760
0.132275
0.156869
0.169493
0.186502
0.071000
0.078015
0.077837
0.064186
0.045041
0.020905
0.014073
0.030761
0.035867
0.027526
0.015783
0.014066
0.027218
0.057451
0.098432
0.133540
0.151627
0.169459
0.183886
0.177901
0.179226
0.060064
0.056371
0.021280
0.056631
0.005258
0.032752
0.033223
0.023957
0.173706
0.114744
0.036235
0.140705
0.158202
0.077174
0.073172
0.015306
0.072656
0.077221
0.037623
0.012572
0.013106
0.003531
0.020136
0.020756
0.017195
0.007074
0.019931
0.016973
0.012053
0.111484
0.053184
0.019886
0.077219
0.009222
0.043450
0.033080
0.031768
0.024780
0.006429
0.076538
0.030208
0.045028
0.004531
0.054307
0.124859
0.022770
0.013241
0.010482
0.036503
0.018640
0.007201
0.018766
0.087422
0.011677
0.077045
0.020385
0.029777
0.020085
0.031319
0.028055
0.022949
0.010294
0.029275
0.039431
0.088159
0.014359
0.015724
0.009041
0.037647
0.038658
0.017271
0.009279
0.038532
0.016632
0.047538
0.027212
0.089159
0.058175
0.006703
0.014335
0.031308
0.042443
0.019383
0.014696
0.066213
0.018231
0.018857
0.037049
0.044049
0.005545
0.035767
0.005980
0.026220
0.139257
0.027836
0.028966
0.048645
0.053327
0.033742
0.132610
0.029396
0.016948
0.039072
0.010496
0.031834
0.032643
0.014893
0.156590
0.041571
0.021586
0.018173
0.022288
0.136130
0.032920
0.051747
0.006480
0.092162
0.073051
0.019537
0.010677
0.026664
0.020596
0.015880
0.028320
0.066820
0.011160
0.008911
0.013055
0.049812
0.027565
0.018390
0.037551
0.016039
0.011234
0.003047
0.038491
0.041414
0.024490
0.023090
0.024633
0.015486
0.011658
0.023679
0.024512
0.035490
0.003703
0.028255
0.005392
0.027473
0.015039
0.029119
0.006638
0.050974
0.102181
0.019564
0.043752
0.057594
0.005566
0.054061
0.041670
0.050499
0.044650
0.038107
0.016784
0.150112
0.033838
0.046298
0.093826
0.052951
0.023617
0.069510
0.035923
0.115896
0.026522
0.063415
0.025758
0.050400
0.040494
0.101772
0.078888
0.011782
0.040120
0.063951
0.032305
0.036040
0.005500
0.156250
0.011947
0.019969
0.015471
0.055987
0.008593
0.029476
0.029377
0.015450
0.110337
0.004772
0.043627
0.028454
0.031828
0.009447
0.024435
0.108880
0.046826
0.030613
0.041531
0.006434
0.054383
0.128113
0.080571
0.016469
0.021002
0.073136
0.115979
0.019184
0.009106
0.017880
0.028079
0.004167
0.036368
0.036949
0.014102
0.004957
0.040097
0.003056
0.031761
0.018403
0.007082
0.036316
0.024255
0.011014
0.049571
0.023299
0.075150
0.042009
0.026852
0.051294
0.051767
0.002591
0.002792
0.008593
0.091045
0.012542
0.037521
0.065901
0.021437
0.023548
0.036880
0.047000
0.018333
0.146764
0.052415
0.017497
0.009672
0.042916
0.046248
0.021485
0.039222
0.005787
0.063946
0.126725
0.020402
0.004146
0.019627
0.005904
0.038264
0.040671
0.076501
0.036352
0.047570
0.045638
0.005579
0.027197
0.016763
0.029849
0.087439
0.032136
0.006776
0.015194
0.016873
0.065147
0.017373
0.029794
0.036528
0.017559
0.012860
0.050837
0.098672
0.018361
0.014255
0.031509
0.074448
0.025552
0.138453
0.040553
0.041217
0.042901
0.023288
0.037867
0.109134
0.012156
0.045385
0.097169
0.045127
0.005951
0.016264
0.014539
0.018366
0.147353
0.046685
0.043360
0.053011
0.079950
0.013775
0.162326
0.086962
0.008948
0.039749
0.109736
0.018170
0.031694
0.016405
0.012333
0.025161
0.017428
0.039883
0.057206
0.032668
0.015075
0.008524
0.009245
0.015573
0.021064
0.004069
0.044609
0.015671
0.039844
0.016546
0.003346
0.025517
0.117041
0.014756
0.019759
0.028255
0.043226
0.004587
0.017694
0.044696
0.088042
0.015138
0.013631
0.014849
0.034839
0.184787
0.023543
0.045791
0.018654
0.046345
0.011996
0.063144
0.039081
0.054735
0.011322
0.124327
0.016712
0.122421
0.040157
0.075125
0.022935
0.022467
0.016767
0.020416
0.043033
0.040434
0.022018
0.042837
0.027975
0.006963
0.034559
0.036736
0.031301
0.030253
0.022617
0.014565
0.026905
0.103897
0.022280
0.089311
0.005439
0.011327
0.029151
0.009885
0.046588
0.086213
0.023621
0.041712
0.036847
0.024851
0.066378
0.095767
0.136175
0.017548
0.028447
0.005283
0.032888
0.023307
0.028262
0.022500
0.065915
0.025628
0.019838
0.018862
0.006879
0.037679
0.006147
0.018513
0.030183
0.036331
0.010933
0.040156
0.037775
0.008442
0.009013
0.022750
0.008086
0.010126
0.015703
0.010793
0.071445
0.051958
0.023103
0.024003
0.034081
0.004881
0.023646
0.032629
0.033732
0.015966
0.003399
0.054809
0.048024
0.010316
0.031759
0.076642
0.012717
0.010509
0.028328
0.006745
0.007037
0.025607
0.069823
0.063622
0.045320
0.067622
0.053785
0.006750
0.028764
0.059256
0.009109
0.012133
0.032742
0.014448
0.049027
0.008100
0.021838
0.011973
0.013470
0.016185
0.009786
0.037816
0.025462
0.038693
0.157894
0.013059
0.168673
0.098863
0.036419
0.123140
0.012355
0.016926
0.069161
0.027485
0.036286
0.032176
0.039477
0.012690
0.018974
0.124638
0.025809
0.033162
0.017951
0.031235
0.025932
0.034546
0.034318
0.007593
0.041830
0.015227
0.017080
0.040313
0.008633
0.022380
0.020304
0.008446
0.095300
0.032156
0.030993
0.117202
0.124143
0.016683
0.014949
0.089604
0.097854
0.070905
0.027156
0.035650
0.035818
0.010049
0.041123
0.023980
0.029017
0.052365
0.051895
0.037032
0.029416
0.055227
0.013295
0.129293
0.133144
0.233589
0.238064
0.033410
0.073218
0.041543
0.016691
0.084698
0.010486
0.090198
0.126208
0.074191
0.175255
0.054884
0.006367
0.069915
0.027649
0.051450
0.033337
0.013289
0.054127
0.010101
0.014760
0.019126
0.021438
0.016921
0.004550
0.017767
0.015003
0.021888
0.111076
0.052083
0.017178
0.078426
0.011609
0.042212
0.035576
0.032257
0.026278
0.005272
0.072880
0.032100
0.045182
0.003768
0.053646
0.121202
0.021813
0.039240
0.006079
0.010499
0.018620
0.004154
0.019126
0.091161
0.005722
0.078238
0.019727
0.027880
0.020203
0.031169
0.027035
0.034048
0.010833
0.030135
0.041487
0.080119
0.015050
0.015202
0.009514
0.037517
0.040078
0.021984
0.012751
0.041160
0.017532
0.045919
0.025347
0.089902
0.057402
0.008984
0.015376
0.033972
0.042149
0.018578
0.016270
0.064363
0.012458
0.019119
0.041728
0.042940
0.007077
0.007024
0.034536
0.019912
0.137747
0.036243
0.027357
0.047374
0.051660
0.036217
0.127715
0.023933
0.016654
0.008926
0.040488
0.029328
0.032563
0.014399
0.155136
0.043675
0.023171
0.017578
0.019731
0.139396
0.032341
0.050056
0.004129
0.099377
0.074182
0.018505
0.011680
0.026111
0.016031
0.014629
0.012083
0.028603
0.061810
0.013107
0.011847
0.048496
0.026121
0.018121
0.036155
0.015192
0.006165
0.008491
0.038145
0.040866
0.021719
0.023306
0.023734
0.016002
0.012760
0.025093
0.025837
0.038793
0.003149
0.029464
0.001441
0.034387
0.017589
0.027783
0.009127
0.046899
0.103253
0.017678
0.043286
0.055906
0.007699
0.055437
0.043688
0.054571
0.042710
0.036545
0.015942
0.148060
0.013394
0.039673
0.091873
0.050236
0.028711
0.066335
0.033599
0.114063
0.026999
0.062487
0.028474
0.054319
0.039624
0.098262
0.077099
0.005682
0.039817
0.063723
0.032250
0.036203
0.013354
0.157899
0.015285
0.019588
0.015609
0.054573
0.009068
0.030370
0.025342
0.015972
0.107413
0.007422
0.025762
0.029151
0.030796
0.006656
0.041231
0.105980
0.051710
0.029823
0.041356
0.023143
0.053983
0.130764
0.074537
0.007530
0.020438
0.110713
0.019024
0.007405
0.042752
0.053108
0.027738
0.004710
0.035485
0.037195
0.012208
0.007740
0.042242
0.011064
0.030715
0.011561
0.019790
0.037592
0.026150
0.014077
0.059161
0.022473
0.075984
0.043574
0.024700
0.050222
0.051200
0.003858
0.020900
0.011518
0.089259
0.010171
0.037258
0.063717
0.021555
0.025152
0.037031
0.047826
0.018205
0.142099
0.051228
0.016368
0.007531
0.025972
0.038334
0.006837
0.063090
0.125897
0.022044
0.005558
0.020721
0.007159
0.039074
0.040935
0.074506
0.032519
0.047967
0.041917
0.006876
0.029338
0.014240
0.034790
0.089447
0.031980
0.001810
0.006579
0.016281
0.066832
0.013582
0.022001
0.036184
0.012579
0.082997
0.005249
0.049298
0.096440
0.018519
0.003889
0.077117
0.027821
0.034978
0.024090
0.139501
0.038507
0.041358
0.045267
0.022257
0.036655
0.109506
0.007500
0.046456
0.100627
0.051565
0.019634
0.006106
0.016801
0.015481
0.145650
0.048967
0.041978
0.053086
0.076853
0.023646
0.157337
0.083478
0.106931
0.010466
0.044729
0.028651
0.019251
0.028346
0.015097
0.016952
0.010738
0.022607
0.036854
0.017246
0.033696
0.038499
0.056282
0.030045
0.015782
0.006424
0.005816
0.019680
0.011970
0.009002
0.016209
0.039718
0.016494
0.017827
0.026716
0.130499
0.022624
0.014019
0.028789
0.042437
0.005147
0.013326
0.043117
0.085517
0.014668
0.006445
0.016686
0.034806
0.183477
0.026277
0.050621
0.018526
0.044627
0.011049
0.067200
0.038963
0.052701
0.010977
0.120365
0.013406
0.120397
0.039832
0.072485
0.010211
0.020629
0.040403
0.041927
0.022094
0.046064
0.030055
0.005617
0.036695
0.023181
0.016941
0.027824
0.106503
0.018862
0.024063
0.084746
0.008373
0.013388
0.028335
0.017540
0.050069
0.099371
0.022570
0.045445
0.044279
0.033584
0.069706
0.094380
0.136833
0.036907
0.028617
0.007731
0.019569
0.035517
0.021727
0.008185
0.026977
0.023286
0.071193
0.017622
0.002877
0.043963
0.026685
0.010694
0.030066
0.036246
0.008857
0.037590
0.037478
0.011699
0.019503
0.009549
0.018721
0.008606
0.003895
0.070399
0.052327
0.020711
0.024177
0.033416
0.044267
0.007047
0.023474
0.034009
0.035066
0.017116
0.007452
0.054783
0.046730
0.012286
0.012864
0.029998
0.076426
0.013607
0.027823
0.012301
0.007131
0.025277
0.068905
0.061633
0.043648
0.040043
0.054213
0.006160
0.027747
0.057718
0.007576
0.007788
0.009603
0.032069
0.048043
0.010118
0.019912
0.016975
0.008070
0.014287
0.007033
0.043610
0.032107
0.038733
0.160231
0.008411
0.171269
0.097655
0.046036
0.120745
0.009782
0.016580
0.026698
0.036862
0.033650
0.037018
0.035774
0.059885
0.012930
0.013123
0.121895
0.026248
0.033363
0.016159
0.039045
0.028302
0.033448
0.027628
0.009509
0.044047
0.015842
0.016001
0.035787
0.023339
0.021405
0.013028
0.098348
0.111085
0.125519
0.186323
0.201688
0.037784
0.035222
0.122379
0.179237
0.141681
0.032052
0.126785
0.148861
0.087279
0.023333
0.081475
0.135539
0.177037
0.200323
0.161202
0.097552
0.007681
0.122400
