# vtk DataFile Version 2.0
Unstructured Grid Example
ASCII
DATASET UNSTRUCTURED_GRID
POINTS 1221 float
-0.001475 -0.003162 0.013738 
0.998348 0.000995 -0.008022 
0.998791 1.001752 0.002684 
-0.000860 0.996330 -0.009555 
0.000199 0.003679 0.063764 
1.000176 -0.002082 0.042018 
0.999793 0.999218 0.052675 
-0.000261 1.003329 0.040417 
0.000317 0.053547 0.056067 
-0.000041 0.103065 0.048614 
-0.000025 0.151501 0.043267 
0.000127 0.199971 0.042376 
0.000234 0.247854 0.045417 
0.000270 0.297312 0.051341 
0.000155 0.347709 0.057147 
0.000407 0.399292 0.060713 
0.000017 0.451309 0.059432 
-0.000228 0.502291 0.054255 
-0.000478 0.552548 0.047619 
-0.000398 0.601845 0.042401 
-0.000536 0.649676 0.041647 
0.000061 0.697775 0.046327 
0.000587 0.748015 0.053598 
0.000647 0.799042 0.058309 
0.000813 0.850822 0.059344 
0.000564 0.902240 0.054998 
0.000069 0.953275 0.047983 
-0.000834 0.047009 0.006092 
-0.000336 0.097014 -0.001655 
0.000135 0.148295 -0.006669 
0.000323 0.200094 -0.007703 
-0.000106 0.251083 -0.004520 
-0.000154 0.301837 0.001100 
-0.000421 0.351533 0.007242 
-0.001027 0.400155 0.010670 
-0.001114 0.448576 0.009383 
-0.001283 0.497765 0.004323 
-0.000892 0.548521 -0.002235 
-0.000217 0.599475 -0.007498 
0.000175 0.651323 -0.008475 
0.000215 0.702587 -0.003543 
-0.000260 0.752587 0.003366 
-0.000599 0.800980 0.008668 
-0.000686 0.849043 0.009174 
-0.000793 0.897113 0.005107 
-0.000771 0.946413 -0.001986 
-0.000654 0.000235 0.038579 
-0.000574 0.999826 0.015544 
0.050153 0.002960 0.061225 
0.100440 0.001986 0.058042 
0.150301 0.001365 0.055728 
0.199991 0.000891 0.054314 
0.249778 0.000990 0.053965 
0.299823 0.000908 0.053993 
0.349907 0.000520 0.053475 
0.400288 0.000381 0.052335 
0.450444 0.000108 0.050659 
0.500413 -0.000138 0.048760 
0.550199 -0.000394 0.047393 
0.599882 -0.000335 0.046988 
0.649553 -0.000249 0.047635 
0.699417 0.000007 0.048894 
0.749537 -0.000005 0.049888 
0.799858 -0.000095 0.049937 
0.850056 -0.000307 0.048811 
0.900190 -0.000734 0.046851 
0.950148 -0.001476 0.044219 
0.048476 -0.003222 0.011185 
0.098617 -0.002687 0.008172 
0.149295 -0.001652 0.006173 
0.199864 -0.001161 0.004273 
0.249969 -0.001023 0.003922 
0.299818 -0.000891 0.004008 
0.349494 -0.000694 0.003446 
0.399180 -0.000491 0.002376 
0.449053 -0.000319 0.000645 
0.499187 -0.000109 -0.001180 
0.549592 0.000073 -0.002597 
0.599962 0.000270 -0.002916 
0.650356 0.000535 -0.002393 
0.700397 0.000751 -0.001148 
0.750050 0.000932 -0.000144 
0.799433 0.001078 -0.000200 
0.848910 0.001110 -0.001176 
0.898525 0.001138 -0.003206 
0.948305 0.001261 -0.005674 
0.999264 -0.000534 0.017092 
1.000341 0.048121 0.045495 
1.000337 0.098507 0.049124 
1.000369 0.149423 0.051151 
1.000482 0.200142 0.052026 
1.000378 0.250700 0.051344 
1.000197 0.300859 0.049792 
1.000019 0.350886 0.047901 
0.999826 0.400175 0.047121 
0.999542 0.449447 0.047816 
0.999360 0.499042 0.049676 
0.999367 0.549099 0.051425 
0.999568 0.599659 0.051930 
0.999867 0.650216 0.050517 
1.000280 0.700175 0.048280 
1.000726 0.750224 0.046013 
1.000847 0.800115 0.044707 
1.000727 0.849694 0.045317 
1.000339 0.899407 0.047309 
1.000105 0.949262 0.050015 
0.998938 0.050955 -0.004339 
0.999466 0.100994 -0.000848 
1.000073 0.150299 0.001408 
1.000217 0.200051 0.002020 
1.000242 0.249761 0.001401 
1.000040 0.299556 -0.000237 
0.999756 0.349791 -0.002119 
0.999372 0.400213 -0.002974 
0.999131 0.450653 -0.002189 
0.999020 0.500625 -0.000400 
0.999110 0.550148 0.001391 
0.999361 0.599430 0.001844 
0.999496 0.648936 0.000631 
0.999638 0.698820 -0.001756 
0.999639 0.749115 -0.003965 
0.999583 0.799952 -0.005067 
0.999500 0.850968 -0.004738 
0.999351 0.901484 -0.002649 
0.999067 0.951768 -0.000021 
0.999294 1.000485 0.027645 
0.949830 0.999064 0.053506 
0.899705 0.999172 0.054005 
0.849477 0.999157 0.054154 
0.799469 0.999218 0.053589 
0.749363 0.999253 0.052433 
0.699549 0.999449 0.051021 
0.649639 0.999560 0.049424 
0.599820 0.999935 0.048340 
0.550084 1.000000 0.048065 
0.500251 1.000096 0.048562 
0.450222 1.000217 0.049200 
0.399931 1.000562 0.049424 
0.349535 1.000685 0.048570 
0.299344 1.000933 0.047044 
0.249366 1.001475 0.044908 
0.199491 1.001772 0.043090 
0.149719 1.001961 0.041754 
0.099862 1.002550 0.041200 
0.049769 1.003332 0.040486 
0.948879 1.001325 0.003424 
0.899155 1.001050 0.003997 
0.849459 1.000555 0.004136 
0.799936 1.000361 0.003451 
0.750284 1.000198 0.002410 
0.700414 1.000119 0.001045 
0.650443 1.000136 -0.000603 
0.600098 0.999877 -0.001656 
0.549851 0.999845 -0.001927 
0.499647 0.999823 -0.001435 
0.449650 0.999881 -0.000769 
0.399864 0.999585 -0.000622 
0.350110 0.999482 -0.001373 
0.300475 0.999144 -0.002948 
0.250437 0.998657 -0.005131 
0.200201 0.998461 -0.007051 
0.149808 0.998613 -0.008077 
0.099581 0.997689 -0.008856 
0.049209 0.996965 -0.009434 
0.023662 0.999189 0.009327 
0.019390 1.001360 0.025831 
0.974872 1.000635 0.021965 
0.979726 0.999858 0.038423 
0.481604 0.999959 0.023852 
0.774747 0.999748 0.028041 
0.674876 0.999811 0.025173 
0.525690 0.999932 0.023231 
0.724846 0.999755 0.026773 
0.624947 0.999950 0.023707 
0.074567 1.000161 0.015620 
0.224805 1.000147 0.018801 
0.575045 0.999903 0.023044 
0.174906 1.000029 0.017394 
0.124736 1.000055 0.016451 
0.874481 1.000061 0.029139 
0.824510 0.999831 0.028922 
0.374937 1.000067 0.024178 
0.917730 1.000169 0.028878 
0.274802 1.000120 0.020832 
0.324824 1.000066 0.022975 
0.424892 1.000091 0.024335 
0.500565 0.500105 0.049585 
0.292302 0.294982 0.050188 
0.707776 0.705385 0.051038 
0.709357 0.290905 0.048924 
0.290815 0.708388 0.050341 
0.501641 0.781489 0.050251 
0.784033 0.497613 0.050911 
0.499824 0.223053 0.050836 
0.224312 0.503390 0.049918 
0.168232 0.170972 0.043980 
0.831252 0.169929 0.052853 
0.830739 0.830677 0.049062 
0.169279 0.830720 0.054147 
0.563796 0.640711 0.049533 
0.437027 0.359479 0.052249 
0.642755 0.437369 0.048256 
0.353432 0.567064 0.048284 
0.639830 0.846782 0.048660 
0.360532 0.153664 0.049758 
0.151637 0.360015 0.054089 
0.846699 0.360227 0.048369 
0.846221 0.641504 0.052423 
0.641342 0.153487 0.049889 
0.358668 0.846601 0.052922 
0.153277 0.634458 0.043281 
0.678198 0.581693 0.051210 
0.561372 0.330846 0.049812 
0.439567 0.669089 0.049499 
0.322191 0.419958 0.051883 
0.533921 0.882069 0.049007 
0.465165 0.117576 0.049760 
0.881767 0.464980 0.049444 
0.119874 0.466719 0.054595 
0.744215 0.896001 0.050239 
0.108288 0.257290 0.045962 
0.258266 0.098264 0.049067 
0.896944 0.255999 0.051537 
0.890107 0.737234 0.049041 
0.736780 0.110807 0.051614 
0.263049 0.890070 0.051451 
0.110370 0.737641 0.050874 
0.601119 0.740311 0.049540 
0.399260 0.259843 0.051557 
0.745081 0.404386 0.047888 
0.251151 0.597614 0.045267 
0.598673 0.520927 0.049279 
0.398442 0.475185 0.050719 
0.612116 0.254033 0.049664 
0.388406 0.745441 0.051968 
0.097436 0.095607 0.048082 
0.902451 0.094697 0.050927 
0.905373 0.901977 0.049789 
0.098747 0.906884 0.051478 
0.437072 0.903162 0.050866 
0.902549 0.562836 0.052494 
0.563015 0.096623 0.048566 
0.096491 0.564560 0.045408 
0.258537 0.202465 0.046861 
0.742001 0.797383 0.049697 
0.797331 0.258355 0.050742 
0.209153 0.744957 0.051613 
0.196085 0.278931 0.047708 
0.798340 0.716355 0.051005 
0.714630 0.206861 0.050755 
0.285465 0.793624 0.053570 
0.502834 0.412062 0.050614 
0.497607 0.588360 0.049046 
0.241098 0.365157 0.051972 
0.759026 0.634607 0.052369 
0.689391 0.500473 0.049988 
0.646409 0.345341 0.048119 
0.308791 0.505154 0.049795 
0.353987 0.653955 0.048765 
0.080401 0.183477 0.042474 
0.176995 0.085492 0.049098 
0.817595 0.918525 0.051433 
0.919595 0.182536 0.052590 
0.917756 0.820588 0.047198 
0.820930 0.082824 0.051823 
0.081369 0.817670 0.057150 
0.185397 0.915626 0.049276 
0.651902 0.655761 0.050863 
0.348445 0.344605 0.052082 
0.514384 0.696388 0.049583 
0.486648 0.303456 0.051581 
0.610334 0.917149 0.048240 
0.389415 0.083156 0.050792 
0.078630 0.394420 0.058460 
0.916823 0.389999 0.047774 
0.924821 0.660599 0.051154 
0.659984 0.074918 0.049171 
0.339575 0.925610 0.051032 
0.074095 0.660376 0.042727 
0.431527 0.821840 0.051749 
0.820502 0.565724 0.052750 
0.568615 0.177671 0.049747 
0.179173 0.567992 0.045151 
0.190399 0.431393 0.053948 
0.573936 0.818391 0.048973 
0.426626 0.178847 0.050558 
0.821275 0.426390 0.048711 
0.566189 0.457550 0.049150 
0.435770 0.542184 0.049270 
0.774279 0.331313 0.048471 
0.225129 0.667318 0.046527 
0.667663 0.781404 0.049449 
0.333165 0.218387 0.049539 
0.677085 0.930002 0.049433 
0.068698 0.316795 0.052454 
0.322289 0.070404 0.051221 
0.930474 0.323219 0.049189 
0.745443 0.559715 0.052010 
0.448183 0.736108 0.050740 
0.552475 0.263220 0.050317 
0.614160 0.594958 0.050118 
0.386462 0.406160 0.052012 
0.258839 0.443311 0.052225 
0.586143 0.392882 0.048878 
0.414825 0.606969 0.048787 
0.451183 0.428219 0.051198 
0.548955 0.572241 0.049234 
0.485021 0.934757 0.049422 
0.934011 0.514509 0.050821 
0.515343 0.064947 0.048732 
0.064740 0.516675 0.051113 
0.500365 0.838594 0.050005 
0.837441 0.506682 0.051307 
0.500346 0.151975 0.049878 
0.153494 0.502416 0.050872 
0.696620 0.842696 0.049208 
0.303606 0.156724 0.048458 
0.842450 0.303144 0.049871 
0.149160 0.701272 0.047394 
0.159746 0.230628 0.044508 
0.842482 0.773333 0.049092 
0.773163 0.158437 0.052332 
0.226946 0.842390 0.053081 
0.670056 0.238361 0.049775 
0.330257 0.761532 0.052900 
0.697072 0.355750 0.047754 
0.302789 0.643482 0.047407 
0.939195 0.606162 0.052350 
0.606336 0.060179 0.047958 
0.393777 0.940100 0.050803 
0.059994 0.608043 0.042016 
0.700257 0.432989 0.048198 
0.303681 0.558898 0.047521 
0.054610 0.056888 0.054240 
0.945962 0.052854 0.047456 
0.945951 0.944757 0.050975 
0.054549 0.948845 0.047646 
0.772578 0.945319 0.051816 
0.055998 0.231227 0.043837 
0.226463 0.054926 0.051199 
0.945930 0.771777 0.046660 
0.771301 0.054886 0.051351 
0.228592 0.946256 0.047676 
0.947024 0.227184 0.052130 
0.055543 0.770469 0.055346 
0.219794 0.160268 0.045741 
0.775519 0.846966 0.049710 
0.847687 0.225017 0.052136 
0.155987 0.774872 0.053437 
0.553283 0.947792 0.048256 
[...]
POINT_DATA 1221
SCALARS u float 1
LOOKUP_TABLE default
0.262172
0.152616
0.063362
0.189990
0.263551
0.152622
0.051687
0.187706
0.130121
0.062219
0.127596
0.141037
0.093709
0.055785
0.138855
0.198739
0.176125
0.089484
0.065110
0.144822
0.154939
0.079444
0.076775
0.155163
0.174142
0.101848
0.071155
0.126473
0.063444
0.127339
0.142622
0.085995
0.039707
0.137147
0.198282
0.176740
0.093089
0.052245
0.139093
0.158686
0.081240
0.078669
0.161723
0.171083
0.109504
0.077169
0.251493
0.175262
0.214749
0.153441
0.109064
0.081472
0.075697
0.075808
0.065020
0.044087
0.014834
0.024311
0.048907
0.056093
0.044764
0.023121
0.008814
0.003374
0.022730
0.059907
0.110386
0.217130
0.161154
0.118917
0.081938
0.074973
0.076018
0.065695
0.047371
0.021997
0.026588
0.048638
0.054163
0.045834
0.026413
0.017468
0.022826
0.036065
0.068587
0.111993
0.147235
0.090506
0.032620
0.024777
0.038614
0.028881
0.016743
0.042140
0.053451
0.042521
0.022150
0.033310
0.037115
0.010658
0.032392
0.075068
0.099170
0.087841
0.051351
0.013800
0.084491
0.026115
0.026665
0.037598
0.026661
0.009332
0.039651
0.056355
0.045206
0.022740
0.030669
0.037615
0.024713
0.039701
0.075439
0.094039
0.089928
0.057438
0.036978
0.051428
0.067202
0.075839
0.078990
0.068648
0.048531
0.023019
0.014989
0.030908
0.035821
0.027066
0.015869
0.014933
0.030557
0.058611
0.098760
0.132275
0.156869
0.169493
0.186502
0.071000
0.078015
0.077837
0.064186
0.045041
0.020905
0.014073
0.030761
0.035867
0.027526
0.015783
0.014066
0.027218
0.057451
0.098432
0.133540
0.151627
0.169459
0.183886
0.177901
0.179226
0.060064
0.056371
0.021280
0.056631
0.005258
0.032752
0.033223
0.023957
0.173706
0.114744
0.036235
0.140705
0.158202
0.077174
0.073172
0.015306
0.072656
0.077221
0.037623
0.012572
0.013106
0.003531
0.020136
0.020756
0.017195
0.007074
0.019931
0.016973
0.012053
0.111484
0.053184
0.019886
0.077219
0.009222
0.043450
0.033080
0.031768
0.024780
0.006429
0.076538
0.030208
0.045028
0.004531
0.054307
0.124859
0.022770
0.013241
0.010482
0.036503
0.018640
0.007201
0.018766
0.087422
0.011677
0.077045
0.020385
0.029777
0.020085
0.031319
0.028055
0.022949
0.010294
0.029275
0.039431
0.088159
0.014359
0.015724
0.009041
0.037647
0.038658
0.017271
0.009279
0.038532
0.016632
0.047538
0.027212
0.089159
0.058175
0.006703
0.014335
0.031308
0.042443
0.019383
0.014696
0.066213
0.018231
0.018857
0.037049
0.044049
0.005545
0.035767
0.005980
0.026220
0.139257
0.027836
0.028966
0.048645
0.053327
0.033742
0.132610
0.029396
0.016948
0.039072
0.010496
0.031834
0.032643
0.014893
0.156590
0.041571
0.021586
0.018173
0.022288
0.136130
0.032920
0.051747
0.006480
0.092162
0.073051
0.019537
0.010677
0.026664
0.020596
0.015880
0.028320
0.066820
0.011160
0.008911
0.013055
0.049812
0.027565
0.018390
0.037551
0.016039
0.011234
0.003047
0.038491
0.041414
0.024490
0.023090
0.024633
0.015486
0.011658
0.023679
0.024512
0.035490
0.003703
0.028255
0.005392
0.027473
0.015039
0.029119
0.006638
0.050974
0.102181
0.019564
0.043752
0.057594
0.005566
0.054061
0.041670
0.050499
0.044650
0.038107
0.016784
0.150112
0.033838
0.046298
0.093826
0.052951
0.023617
0.069510
0.035923
0.115896
0.026522
0.063415
0.025758
0.050400
0.040494
0.101772
0.078888
0.011782
0.040120
0.063951
0.032305
0.036040
0.005500
0.156250
0.011947
0.019969
0.015471
0.055987
0.008593
0.029476
0.029377
0.015450
0.110337
0.004772
0.043627
0.028454
0.031828
0.009447
0.024435
0.108880
0.046826
0.030613
0.041531
0.006434
0.054383
0.128113
0.080571
0.016469
0.021002
0.073136
0.115979
0.019184
0.009106
0.017880
0.028079
0.004167
0.036368
0.036949
0.014102
0.004957
0.040097
0.003056
0.031761
0.018403
0.007082
0.036316
0.024255
0.011014
0.049571
0.023299
0.075150
0.042009
0.026852
0.051294
0.051767
0.002591
0.002792
0.008593
0.091045
0.012542
0.037521
0.065901
0.021437
0.023548
0.036880
0.047000
0.018333
0.146764
0.052415
0.017497
0.009672
0.042916
0.046248
0.021485
0.039222
0.005787
0.063946
0.126725
0.020402
0.004146
0.019627
0.005904
0.038264
0.040671
0.076501
0.036352
0.047570
0.045638
0.005579
0.027197
0.016763
0.029849
0.087439
0.032136
0.006776
0.015194
0.016873
0.065147
0.017373
0.029794
0.036528
0.017559
0.012860
0.050837
0.098672
0.018361
0.014255
0.031509
0.074448
0.025552
0.138453
0.040553
0.041217
0.042901
0.023288
0.037867
0.109134
0.012156
0.045385
0.097169
0.045127
0.005951
0.016264
0.014539
0.018366
0.147353
0.046685
0.043360
0.053011
0.079950
0.013775
0.162326
0.086962
0.008948
0.039749
0.109736
0.018170
0.031694
0.016405
0.012333
0.025161
0.017428
0.039883
0.057206
0.032668
0.015075
0.008524
0.009245
0.015573
0.021064
0.004069
0.044609
0.015671
0.039844
0.016546
0.003346
0.025517
0.117041
0.014756
0.019759
0.028255
0.043226
0.004587
0.017694
0.044696
0.088042
0.015138
0.013631
0.014849
0.034839
0.184787
0.023543
0.045791
0.018654
0.046345
0.011996
0.063144
0.039081
0.054735
0.011322
0.124327
0.016712
0.122421
0.040157
0.075125
0.022935
0.022467
0.016767
0.020416
0.043033
0.040434
0.022018
0.042837
0.027975
0.006963
0.034559
0.036736
0.031301
0.030253
0.022617
0.014565
0.026905
0.103897
0.022280
0.089311
0.005439
0.011327
0.029151
0.009885
0.046588
0.086213
0.023621
0.041712
0.036847
0.024851
0.066378
0.095767
0.136175
0.017548
0.028447
0.005283
0.032888
0.023307
0.028262
0.022500
0.065915
0.025628
0.019838
0.018862
0.006879
0.037679
0.006147
0.018513
0.030183
0.036331
0.010933
0.040156
0.037775
0.008442
0.009013
0.022750
0.008086
0.010126
0.015703
0.010793
0.071445
0.051958
0.023103
0.024003
0.034081
0.004881
0.023646
0.032629
0.033732
0.015966
0.003399
0.054809
0.048024
0.010316
0.031759
0.076642
0.012717
0.010509
0.028328
0.006745
0.007037
0.025607
0.069823
0.063622
0.045320
0.067622
0.053785
0.006750
0.028764
0.059256
0.009109
0.012133
0.032742
0.014448
0.049027
0.008100
0.021838
0.011973
0.013470
0.016185
0.009786
0.037816
0.025462
0.038693
0.157894
0.013059
0.168673
0.098863
0.036419
0.123140
0.012355
0.016926
0.069161
0.027485
0.036286
0.032176
0.039477
0.012690
0.018974
0.124638
0.025809
0.033162
0.017951
0.031235
0.025932
0.034546
0.034318
0.007593
0.041830
0.015227
0.017080
0.040313
0.008633
0.022380
0.020304
0.008446
0.095300
0.032156
0.030993
0.117202
0.124143
0.016683
0.014949
0.089604
0.097854
0.070905
0.027156
0.035650
0.035818
0.010049
0.041123
0.023980
0.029017
0.052365
0.051895
0.037032
0.029416
0.055227
0.013295
0.129293
0.133144
0.233589
0.238064
0.033410
0.073218
0.041543
0.016691
0.084698
0.010486
0.090198
0.126208
0.074191
0.175255
0.054884
0.006367
0.069915
0.027649
0.051450
0.033337
0.013289
0.054127
0.010101
0.014760
0.019126
0.021438
0.016921
0.004550
0.017767
0.015003
0.021888
0.111076
0.052083
0.017178
0.078426
0.011609
0.042212
0.035576
0.032257
0.026278
0.005272
0.072880
0.032100
0.045182
0.003768
0.053646
0.121202
0.021813
0.039240
0.006079
0.010499
0.018620
0.004154
0.019126
0.091161
0.005722
0.078238
0.019727
0.027880
0.020203
0.031169
0.027035
0.034048
0.010833
0.030135
0.041487
0.080119
0.015050
0.015202
0.009514
0.037517
0.040078
0.021984
0.012751
0.041160
0.017532
0.045919
0.025347
0.089902
0.057402
0.008984
0.015376
0.033972
0.042149
0.018578
0.016270
0.064363
0.012458
0.019119
0.041728
0.042940
0.007077
0.007024
0.034536
0.019912
0.137747
0.036243
0.027357
0.047374
0.051660
0.036217
0.127715
0.023933
0.016654
0.008926
0.040488
0.029328
0.032563
0.014399
0.155136
0.043675
0.023171
0.017578
0.019731
0.139396
0.032341
0.050056
0.004129
0.099377
0.074182
0.018505
0.011680
0.026111
0.016031
0.014629
0.012083
0.028603
0.061810
0.013107
0.011847
0.048496
0.026121
0.018121
0.036155
0.015192
0.006165
0.008491
0.038145
0.040866
0.021719
0.023306
0.023734
0.016002
0.012760
0.025093
0.025837
0.038793
0.003149
0.029464
0.001441
0.034387
0.017589
0.027783
0.009127
0.046899
0.103253
0.017678
0.043286
0.055906
0.007699
0.055437
0.043688
0.054571
0.042710
0.036545
0.015942
0.148060
0.013394
0.039673
0.091873
0.050236
0.028711
0.066335
0.033599
0.114063
0.026999
0.062487
0.028474
0.054319
0.039624
0.098262
0.077099
0.005682
0.039817
0.063723
0.032250
0.036203
0.013354
0.157899
0.015285
0.019588
0.015609
0.054573
0.009068
0.030370
0.025342
0.015972
0.107413
0.007422
0.025762
0.029151
0.030796
0.006656
0.041231
0.105980
0.051710
0.029823
0.041356
0.023143
0.053983
0.130764
0.074537
0.007530
0.020438
0.110713
0.019024
0.007405
0.042752
0.053108
0.027738
0.004710
0.035485
0.037195
0.012208
0.007740
0.042242
0.011064
0.030715
0.011561
0.019790
0.037592
0.026150
0.014077
0.059161
0.022473
0.075984
0.043574
0.024700
0.050222
0.051200
0.003858
0.020900
0.011518
0.089259
0.010171
0.037258
0.063717
0.021555
0.025152
0.037031
0.047826
0.018205
0.142099
0.051228
0.016368
0.007531
0.025972
0.038334
0.006837
0.063090
0.125897
0.022044
0.005558
0.020721
0.007159
0.039074
0.040935
0.074506
0.032519
0.047967
0.041917
0.006876
0.029338
0.014240
0.034790
0.089447
0.031980
0.001810
0.006579
0.016281
0.066832
0.013582
0.022001
0.036184
0.012579
0.082997
0.005249
0.049298
0.096440
0.018519
0.003889
0.077117
0.027821
0.034978
0.024090
0.139501
0.038507
0.041358
0.045267
0.022257
0.036655
0.109506
0.007500
0.046456
0.100627
0.051565
0.019634
0.006106
0.016801
0.015481
0.145650
0.048967
0.041978
0.053086
0.076853
0.023646
0.157337
0.083478
0.106931
0.010466
0.044729
0.028651
0.019251
0.028346
0.015097
0.016952
0.010738
0.022607
0.036854
0.017246
0.033696
0.038499
0.056282
0.030045
0.015782
0.006424
0.005816
0.019680
0.011970
0.009002
0.016209
0.039718
0.016494
0.017827
0.026716
0.130499
0.022624
0.014019
0.028789
0.042437
0.005147
0.013326
0.043117
0.085517
0.014668
0.006445
0.016686
0.034806
0.183477
0.026277
0.050621
0.018526
0.044627
0.011049
0.067200
0.038963
0.052701
0.010977
0.120365
0.013406
0.120397
0.039832
0.072485
0.010211
0.020629
0.040403
0.041927
0.022094
0.046064
0.030055
0.005617
0.036695
0.023181
0.016941
0.027824
0.106503
0.018862
0.024063
0.084746
0.008373
0.013388
0.028335
0.017540
0.050069
0.099371
0.022570
0.045445
0.044279
0.033584
0.069706
0.094380
0.136833
0.036907
0.028617
0.007731
0.019569
0.035517
0.021727
0.008185
0.026977
0.023286
0.071193
0.017622
0.002877
0.043963
0.026685
0.010694
0.030066
0.036246
0.008857
0.037590
0.037478
0.011699
0.019503
0.009549
0.018721
0.008606
0.003895
0.070399
0.052327
0.020711
0.024177
0.033416
0.044267
0.007047
0.023474
0.034009
0.035066
0.017116
0.007452
0.054783
0.046730
0.012286
0.012864
0.029998
0.076426
0.013607
0.027823
0.012301
0.007131
0.025277
0.068905
0.061633
0.043648
0.040043
0.054213
0.006160
0.027747
0.057718
0.007576
0.007788
0.009603
0.032069
0.048043
0.010118
0.019912
0.016975
0.008070
0.014287
0.007033
0.043610
0.032107
0.038733
0.160231
0.008411
0.171269
0.097655
0.046036
0.120745
0.009782
0.016580
0.026698
0.036862
0.033650
0.037018
0.035774
0.059885
0.012930
0.013123
0.121895
0.026248
0.033363
0.016159
0.039045
0.028302
0.033448
0.027628
0.009509
0.044047
0.015842
0.016001
0.035787
0.023339
0.021405
0.013028
0.098348
0.111085
0.125519
0.186323
0.201688
0.037784
0.035222
0.122379
0.179237
0.141681
0.032052
0.126785
0.148861
0.087279
0.023333
0.081475
0.135539
0.177037
0.200323
0.161202
0.097552
0.007681
0.122400
