# vtk DataFile Version 2.0
Unstructured Grid Example
ASCII
DATASET UNSTRUCTURED_GRID
POINTS 1221 float
0.000058 -0.000243 0.000550 
1.000058 -0.000002 0.000252 
0.999818 0.999998 -0.006504 
-0.000182 0.999757 -0.006206 
0.000073 0.000095 0.050550 
1.000073 0.000335 0.050252 
0.999833 1.000335 0.043496 
-0.000167 1.000095 0.043794 
0.000061 0.050095 0.050212 
0.000049 0.100095 0.049875 
0.000037 0.150095 0.049537 
0.000025 0.200095 0.049199 
0.000013 0.250095 0.048861 
0.000001 0.300095 0.048523 
-0.000011 0.350095 0.048185 
-0.000023 0.400095 0.047848 
-0.000035 0.450095 0.047510 
-0.000047 0.500095 0.047172 
-0.000059 0.550095 0.046834 
-0.000071 0.600095 0.046496 
-0.000083 0.650095 0.046158 
-0.000095 0.700095 0.045821 
-0.000107 0.750095 0.045483 
-0.000119 0.800095 0.045145 
-0.000131 0.850095 0.044807 
-0.000143 0.900095 0.044469 
-0.000155 0.950095 0.044131 
0.000046 0.049757 0.000212 
0.000034 0.099757 -0.000125 
0.000022 0.149757 -0.000463 
0.000010 0.199757 -0.000801 
-0.000002 0.249757 -0.001139 
-0.000014 0.299757 -0.001477 
-0.000026 0.349757 -0.001815 
-0.000038 0.399757 -0.002152 
-0.000050 0.449757 -0.002490 
-0.000062 0.499757 -0.002828 
-0.000074 0.549757 -0.003166 
-0.000086 0.599757 -0.003504 
-0.000098 0.649757 -0.003842 
-0.000110 0.699757 -0.004179 
-0.000122 0.749757 -0.004517 
-0.000134 0.799757 -0.004855 
-0.000146 0.849757 -0.005193 
-0.000158 0.899757 -0.005531 
-0.000170 0.949757 -0.005869 
0.000066 -0.000074 0.025550 
-0.000175 0.999926 0.018794 
0.050073 0.000107 0.050535 
0.100073 0.000119 0.050520 
0.150073 0.000131 0.050506 
0.200073 0.000143 0.050491 
0.250073 0.000155 0.050476 
0.300073 0.000167 0.050461 
0.350073 0.000179 0.050446 
0.400073 0.000191 0.050431 
0.450073 0.000203 0.050416 
0.500073 0.000215 0.050401 
0.550073 0.000227 0.050386 
0.600073 0.000239 0.050372 
0.650073 0.000251 0.050357 
0.700073 0.000263 0.050342 
0.750073 0.000275 0.050327 
0.800073 0.000287 0.050312 
0.850073 0.000299 0.050297 
0.900073 0.000311 0.050282 
0.950073 0.000323 0.050267 
0.050058 -0.000231 0.000535 
0.100058 -0.000219 0.000520 
0.150058 -0.000207 0.000506 
0.200058 -0.000195 0.000491 
0.250058 -0.000183 0.000476 
0.300058 -0.000171 0.000461 
0.350058 -0.000159 0.000446 
0.400058 -0.000147 0.000431 
0.450058 -0.000135 0.000416 
0.500058 -0.000123 0.000401 
0.550058 -0.000111 0.000386 
0.600058 -0.000099 0.000372 
0.650058 -0.000087 0.000357 
0.700058 -0.000075 0.000342 
0.750058 -0.000063 0.000327 
0.800058 -0.000051 0.000312 
0.850058 -0.000039 0.000297 
0.900058 -0.000026 0.000282 
0.950058 -0.000014 0.000267 
1.000066 0.000166 0.025252 
1.000061 0.050335 0.049915 
1.000049 0.100335 0.049577 
1.000037 0.150335 0.049239 
1.000025 0.200335 0.048901 
1.000013 0.250335 0.048563 
1.000001 0.300335 0.048225 
0.999989 0.350335 0.047888 
0.999977 0.400335 0.047550 
0.999965 0.450335 0.047212 
0.999953 0.500335 0.046874 
0.999941 0.550335 0.046536 
0.999929 0.600335 0.046198 
0.999917 0.650335 0.045861 
0.999905 0.700335 0.045523 
0.999893 0.750335 0.045185 
0.999881 0.800335 0.044847 
0.999869 0.850335 0.044509 
0.999857 0.900335 0.044171 
0.999845 0.950335 0.043833 
1.000046 0.049998 -0.000085 
1.000034 0.099998 -0.000423 
1.000022 0.149998 -0.000761 
1.000010 0.199998 -0.001099 
0.999998 0.249998 -0.001437 
0.999986 0.299998 -0.001775 
0.999974 0.349998 -0.002112 
0.999962 0.399998 -0.002450 
0.999950 0.449998 -0.002788 
0.999938 0.499998 -0.003126 
0.999926 0.549998 -0.003464 
0.999914 0.599998 -0.003802 
0.999902 0.649998 -0.004139 
0.999890 0.699998 -0.004477 
0.999878 0.749998 -0.004815 
0.999866 0.799998 -0.005153 
0.999854 0.849998 -0.005491 
0.999842 0.899998 -0.005829 
0.999830 0.949998 -0.006167 
0.999825 1.000166 0.018496 
0.949833 1.000323 0.043511 
0.899833 1.000311 0.043525 
0.849833 1.000299 0.043540 
0.799833 1.000287 0.043555 
0.749833 1.000275 0.043570 
0.699833 1.000263 0.043585 
0.649833 1.000251 0.043600 
0.599833 1.000239 0.043615 
0.549833 1.000227 0.043630 
0.499833 1.000215 0.043645 
0.449833 1.000203 0.043659 
0.399833 1.000191 0.043674 
0.349833 1.000179 0.043689 
0.299833 1.000167 0.043704 
0.249833 1.000155 0.043719 
0.199833 1.000143 0.043734 
0.149833 1.000131 0.043749 
0.099833 1.000119 0.043764 
0.049833 1.000107 0.043779 
0.949818 0.999986 -0.006489 
0.899818 0.999974 -0.006475 
0.849818 0.999961 -0.006460 
0.799818 0.999949 -0.006445 
0.749818 0.999937 -0.006430 
0.699818 0.999925 -0.006415 
0.649818 0.999913 -0.006400 
0.599818 0.999901 -0.006385 
0.549818 0.999889 -0.006370 
0.499818 0.999877 -0.006355 
0.449818 0.999865 -0.006341 
0.399818 0.999853 -0.006326 
0.349818 0.999841 -0.006311 
0.299818 0.999829 -0.006296 
0.249818 0.999817 -0.006281 
0.199818 0.999805 -0.006266 
0.149818 0.999793 -0.006251 
0.099818 0.999781 -0.006236 
0.049818 0.999769 -0.006221 
0.024129 0.999891 0.012675 
0.019620 1.000001 0.029204 
0.975518 1.000119 0.012392 
0.980037 1.000232 0.028918 
0.481492 1.000042 0.018650 
0.774825 1.000112 0.018563 
0.674825 1.000088 0.018592 
0.525566 1.000052 0.018637 
0.724825 1.000100 0.018578 
0.624825 1.000076 0.018607 
0.074825 0.999944 0.018771 
0.224825 0.999980 0.018727 
0.574907 1.000064 0.018622 
0.174825 0.999968 0.018741 
0.124825 0.999956 0.018756 
0.874825 1.000136 0.018533 
0.824825 1.000124 0.018548 
0.374825 1.000016 0.018682 
0.918158 1.000147 0.018520 
0.274825 0.999992 0.018712 
0.324825 1.000004 0.018697 
0.424825 1.000028 0.018667 
0.499953 0.500215 0.047023 
0.292319 0.295115 0.048470 
0.707569 0.705340 0.045575 
0.709078 0.291020 0.048375 
0.290828 0.709410 0.045671 
0.501247 0.781629 0.045121 
0.784407 0.498288 0.046952 
0.499519 0.223462 0.048893 
0.224211 0.502894 0.047087 
0.168248 0.170802 0.049347 
0.831025 0.169976 0.049156 
0.830191 0.831287 0.044688 
0.168881 0.830454 0.044890 
0.563565 0.640851 0.046054 
0.436341 0.359579 0.047992 
0.642409 0.437858 0.047402 
0.353312 0.567216 0.046614 
0.639689 0.847039 0.044638 
0.360803 0.153932 0.049404 
0.151289 0.360688 0.048069 
0.846751 0.360482 0.047864 
0.846238 0.641587 0.045965 
0.641561 0.153856 0.049321 
0.358345 0.846574 0.044725 
0.153709 0.634992 0.046215 
0.678210 0.581736 0.046419 
0.560676 0.331051 0.048148 
0.439230 0.669379 0.045898 
0.321719 0.420521 0.047614 
0.533623 0.882231 0.044432 
0.465277 0.118082 0.049615 
0.882250 0.465956 0.047141 
0.119868 0.465738 0.047369 
0.744168 0.896851 0.044271 
0.107954 0.258372 0.048773 
0.258682 0.097963 0.049812 
0.896589 0.256000 0.048556 
0.889533 0.737344 0.045305 
0.737081 0.110635 0.049585 
0.262824 0.889796 0.044461 
0.110160 0.738637 0.045527 
0.600886 0.740264 0.045371 
0.399019 0.260166 0.048675 
0.745218 0.404904 0.047594 
0.251605 0.597969 0.046436 
0.598334 0.521155 0.046852 
0.397989 0.475186 0.047222 
0.611781 0.254197 0.048652 
0.387989 0.746043 0.045395 
0.097649 0.094911 0.049881 
0.902451 0.095105 0.049641 
0.905063 0.902714 0.044183 
0.098420 0.905545 0.044403 
0.436698 0.903282 0.044318 
0.903020 0.563470 0.046476 
0.563207 0.097148 0.049728 
0.096855 0.563276 0.046716 
0.258695 0.202467 0.049106 
0.741721 0.797540 0.044942 
0.797218 0.258454 0.048568 
0.208932 0.745601 0.045451 
0.196202 0.279111 0.048607 
0.798093 0.716386 0.045474 
0.714665 0.206882 0.048941 
0.285240 0.793548 0.045105 
0.502049 0.412142 0.047617 
0.497179 0.588555 0.046427 
0.240824 0.365547 0.048010 
0.759076 0.634676 0.046038 
0.689510 0.500983 0.046962 
0.645953 0.345559 0.048025 
0.308724 0.505074 0.047047 
0.353948 0.654830 0.046022 
0.080275 0.183458 0.049288 
0.177101 0.084426 0.049928 
0.817443 0.919449 0.044096 
0.919187 0.182725 0.049044 
0.917085 0.821303 0.044730 
0.821041 0.083083 0.049746 
0.080719 0.817706 0.045002 
0.185171 0.914352 0.044318 
0.651810 0.655706 0.045927 
0.348081 0.344746 0.048118 
0.513936 0.696758 0.045691 
0.485969 0.303672 0.048355 
0.610055 0.917417 0.044171 
0.389559 0.083232 0.049873 
0.078369 0.394736 0.047861 
0.917100 0.390239 0.047642 
0.924877 0.660815 0.045812 
0.660552 0.075291 0.049847 
0.339594 0.925186 0.044199 
0.074363 0.661555 0.046059 
0.431076 0.821984 0.044869 
0.820927 0.566172 0.046482 
0.568614 0.178143 0.049179 
0.179503 0.567054 0.046666 
0.190388 0.431652 0.047578 
0.573577 0.818550 0.044850 
0.426712 0.179182 0.049214 
0.821613 0.427212 0.047421 
0.565434 0.457790 0.047290 
0.435269 0.542302 0.046758 
0.774273 0.331512 0.048082 
0.225386 0.668399 0.045968 
0.667444 0.781436 0.045073 
0.333325 0.218566 0.048975 
0.677188 0.930596 0.044062 
0.068545 0.318005 0.048382 
0.322776 0.069838 0.049983 
0.930333 0.322980 0.048093 
0.745641 0.559865 0.046547 
0.447733 0.736601 0.045441 
0.551978 0.263556 0.048607 
0.614053 0.595091 0.046348 
0.385959 0.406116 0.047693 
0.258562 0.443421 0.047478 
0.585418 0.393134 0.047721 
0.414487 0.607296 0.046325 
0.450596 0.428259 0.047524 
0.548555 0.572421 0.046521 
0.484629 0.934901 0.044090 
0.934639 0.515539 0.046791 
0.515277 0.065529 0.049956 
0.065259 0.515330 0.047050 
0.500055 0.838725 0.044736 
0.837898 0.507585 0.046873 
0.500377 0.152455 0.049373 
0.153502 0.501346 0.047118 
0.696547 0.843132 0.044648 
0.303946 0.156977 0.049400 
0.842351 0.303122 0.048253 
0.149250 0.702279 0.045762 
0.159612 0.231342 0.048941 
0.841846 0.773489 0.045075 
0.773227 0.158322 0.049252 
0.226679 0.842108 0.044794 
0.669990 0.238435 0.048741 
0.329901 0.761974 0.045305 
0.696888 0.355986 0.047939 
0.303017 0.644445 0.046107 
0.939545 0.606839 0.046172 
0.606577 0.060623 0.049962 
0.393636 0.939867 0.044084 
0.060244 0.606732 0.046434 
0.700224 0.433566 0.047414 
0.303826 0.558789 0.046685 
0.054481 0.054217 0.050168 
0.945639 0.054431 0.049903 
0.945737 0.945902 0.043879 
0.054373 0.946024 0.044143 
0.772589 0.946268 0.043928 
0.055666 0.232412 0.048964 
0.226936 0.054405 0.050116 
0.945056 0.771955 0.045055 
0.771693 0.055112 0.049950 
0.228813 0.945033 0.044098 
0.946547 0.227410 0.048734 
0.054850 0.771745 0.045320 
0.220022 0.160310 0.049403 
0.775169 0.847771 0.044593 
0.847503 0.224999 0.048780 
0.155529 0.774849 0.045269 
[...]
POINT_DATA 1221
SCALARS u float 1
LOOKUP_TABLE default
0.008757
0.003754
0.094292
0.090046
0.008160
0.006174
0.094411
0.089982
0.003485
0.002387
0.006873
0.011695
0.016562
0.021444
0.026332
0.031223
0.036117
0.041011
0.045907
0.050803
0.055699
0.060596
0.065493
0.070391
0.075288
0.080186
0.085084
0.004724
0.003993
0.007587
0.012132
0.016876
0.021688
0.026533
0.031394
0.036265
0.041143
0.046025
0.050911
0.055799
0.060688
0.065579
0.070471
0.075364
0.080258
0.085152
0.008102
0.089981
0.007982
0.007809
0.007642
0.007482
0.007328
0.007183
0.007045
0.006915
0.006794
0.006683
0.006581
0.006490
0.006410
0.006340
0.006282
0.006236
0.006202
0.006180
0.006171
0.008491
0.008225
0.007961
0.007697
0.007434
0.007173
0.006912
0.006653
0.006395
0.006140
0.005886
0.005634
0.005385
0.005139
0.004896
0.004657
0.004422
0.004193
0.003970
0.004483
0.005093
0.007858
0.012065
0.016654
0.021381
0.026171
0.030996
0.035840
0.040698
0.045564
0.050436
0.055314
0.060194
0.065078
0.069963
0.074850
0.079739
0.084629
0.089520
0.001407
0.006154
0.011034
0.015926
0.020821
0.025717
0.030614
0.035512
0.040410
0.045308
0.050206
0.055104
0.060002
0.064901
0.069799
0.074698
0.079596
0.084495
0.089393
0.094320
0.094187
0.093963
0.093739
0.093516
0.093293
0.093070
0.092847
0.092625
0.092403
0.092182
0.091960
0.091739
0.091518
0.091298
0.091078
0.090858
0.090639
0.090419
0.090200
0.094077
0.093861
0.093646
0.093432
0.093218
0.093004
0.092790
0.092577
0.092364
0.092152
0.091940
0.091728
0.091517
0.091305
0.091095
0.090884
0.090674
0.090465
0.090255
0.090094
0.090059
0.094201
0.094262
0.092055
0.093332
0.092896
0.092246
0.093114
0.092678
0.090302
0.090946
0.092460
0.090731
0.090516
0.093771
0.093551
0.091593
0.093961
0.091161
0.091377
0.091809
0.043258
0.022296
0.064247
0.023867
0.062787
0.070789
0.044369
0.016343
0.042280
0.009675
0.012960
0.077115
0.074103
0.057293
0.029242
0.037822
0.049149
0.077806
0.009045
0.028048
0.031249
0.058641
0.010490
0.076514
0.054896
0.052031
0.027044
0.059528
0.034665
0.080780
0.006363
0.041669
0.038179
0.083145
0.017865
0.003618
0.021410
0.068195
0.007223
0.080327
0.064854
0.067185
0.019402
0.035088
0.051705
0.045751
0.040351
0.019845
0.066803
0.002542
0.006930
0.084437
0.081150
0.082412
0.051272
0.005219
0.047624
0.013155
0.073418
0.021157
0.065969
0.020292
0.065734
0.015824
0.071000
0.034669
0.051881
0.028928
0.057571
0.044197
0.028854
0.042871
0.057725
0.010464
0.002375
0.085683
0.014597
0.076528
0.005661
0.072469
0.082391
0.059142
0.027389
0.062540
0.024033
0.084563
0.003382
0.031048
0.034469
0.060876
0.004371
0.084129
0.057148
0.074428
0.051160
0.012372
0.048359
0.035160
0.074724
0.011755
0.037615
0.039414
0.047080
0.028097
0.058483
0.071510
0.015066
0.086150
0.023503
0.002640
0.028017
0.050201
0.066144
0.020460
0.053046
0.033550
0.036617
0.033200
0.053343
0.036006
0.050535
0.085719
0.046743
0.003340
0.042791
0.076372
0.045521
0.009626
0.041813
0.077677
0.009040
0.025677
0.061465
0.015476
0.071514
0.011588
0.075498
0.018614
0.068106
0.030106
0.056482
0.055672
0.003633
0.085805
0.051718
0.037671
0.048104
0.003027
0.004954
0.088844
0.084922
0.088108
0.015096
0.002877
0.071829
0.004219
0.085587
0.018934
0.067854
0.008933
0.078481
0.018209
0.068599
0.087307
0.040156
0.003197
0.035458
0.023249
0.063937
0.010351
0.076730
0.067602
0.018835
0.029348
0.057213
0.033396
0.061447
0.025100
0.027418
0.059127
0.064534
0.022019
0.005606
0.003182
0.010355
0.088664
0.004545
0.081192
0.077104
0.085973
0.042925
0.039314
0.047482
0.053207
0.025171
0.061427
0.040179
0.079640
0.007338
0.036430
0.018868
0.067622
0.020365
0.066405
0.023860
0.062605
0.072708
0.013962
0.032922
0.066077
0.003969
0.062127
0.086028
0.004893
0.008640
0.079414
0.078897
0.072385
0.014383
0.047810
0.044330
0.013022
0.073741
0.016210
0.070714
0.023432
0.063204
0.080884
0.056625
0.006545
0.053124
0.055920
0.043544
0.042894
0.033590
0.052932
0.025607
0.060927
0.014335
0.072498
0.011503
0.081734
0.005352
0.028697
0.087618
0.051238
0.003671
0.047110
0.075109
0.008934
0.078434
0.081364
0.046345
0.005870
0.042728
0.026683
0.070282
0.016406
0.039246
0.047258
0.030473
0.088348
0.019981
0.003233
0.024147
0.081439
0.014963
0.072033
0.055403
0.031161
0.044697
0.037675
0.088473
0.027751
0.003485
0.032040
0.032808
0.048758
0.053927
0.007195
0.082913
0.011215
0.076059
0.004519
0.068935
0.017576
0.024326
0.062384
0.009749
0.004183
0.014364
0.089955
0.076927
0.004407
0.072748
0.086538
0.063674
0.022872
0.057932
0.045419
0.037956
0.047193
0.039319
0.029509
0.057057
0.048523
0.033523
0.032408
0.054129
0.066465
0.062624
0.023954
0.020148
0.056630
0.029906
0.054711
0.031927
0.088117
0.062218
0.004220
0.058051
0.070743
0.015538
0.060997
0.079859
0.007492
0.083495
0.017749
0.069064
0.076851
0.013255
0.041290
0.088265
0.032238
0.003495
0.036713
0.077865
0.049717
0.009017
0.046165
0.077273
0.054073
0.009711
0.050805
0.021890
0.014122
0.030978
0.055609
0.041402
0.046020
0.035711
0.050818
0.072514
0.006863
0.080830
0.037991
0.081687
0.005452
0.032348
0.033141
0.053455
0.037199
0.043733
0.003951
0.088690
0.039438
0.028485
0.058084
0.064211
0.006230
0.081459
0.072458
0.001931
0.004147
0.006843
0.090035
0.004642
0.085480
0.081428
0.086512
0.034470
0.074790
0.013142
0.003886
0.026746
0.059865
0.036844
0.049130
0.060907
0.024799
0.061740
0.073217
0.013455
0.044423
0.009508
0.040561
0.083907
0.038557
0.060290
0.026260
0.032980
0.053556
0.044583
0.040599
0.068736
0.017840
0.040429
0.089856
0.023867
0.004389
0.028317
0.076287
0.034633
0.010508
0.047649
0.004392
0.043364
0.089218
0.016853
0.069882
0.053173
0.025380
0.061757
0.006070
0.011938
0.073274
0.036523
0.049818
0.069807
0.016414
0.016445
0.070477
0.033835
0.052253
0.019384
0.067640
0.012171
0.074830
0.023489
0.063109
0.035946
0.041393
0.007363
0.079079
0.022167
0.064546
0.082954
0.004258
0.025041
0.039920
0.058861
0.004147
0.054673
0.088256
0.005392
0.004965
0.091527
0.087349
0.017384
0.069328
0.048804
0.055725
0.030866
0.027250
0.059371
0.059251
0.027313
0.030612
0.084651
0.031094
0.003232
0.002365
0.006224
0.080543
0.082692
0.020483
0.066225
0.047293
0.039137
0.019725
0.051443
0.084645
0.042810
0.003571
0.038843
0.091926
0.092413
0.002372
0.003949
0.047163
0.023393
0.072286
0.077182
0.082078
0.086975
0.018531
0.013696
0.008929
0.005009
0.028268
0.042852
0.038036
0.033149
0.052708
0.057601
0.067391
0.062496
0.004243
0.005130
0.008080
0.007951
0.005861
0.006854
0.004736
0.004861
0.004624
0.004998
0.007296
0.007519
0.007073
0.007721
0.006430
0.006031
0.006640
0.006226
0.005474
0.005306
0.005147
0.005651
0.043171
0.022301
0.064153
0.023579
0.062797
0.070735
0.044341
0.015717
0.042627
0.009858
0.012129
0.077207
0.074254
0.057354
0.028876
0.037240
0.049135
0.077759
0.008934
0.028149
0.030955
0.058469
0.009932
0.076509
0.054949
0.051774
0.034661
0.026885
0.059495
0.080715
0.005962
0.041530
0.038227
0.083191
0.017952
0.003797
0.020957
0.068160
0.006061
0.080393
0.065036
0.067258
0.018940
0.033881
0.052366
0.046062
0.040317
0.019550
0.066845
0.003656
0.005206
0.084354
0.081265
0.082360
0.051137
0.004300
0.047766
0.013247
0.073334
0.020758
0.066053
0.020320
0.065611
0.015376
0.071046
0.034574
0.051843
0.028969
0.057442
0.043818
0.042584
0.028296
0.058079
0.010804
0.003145
0.085659
0.013879
0.076391
0.003751
0.072508
0.082440
0.059037
0.062765
0.027178
0.023991
0.084522
0.002892
0.031198
0.034168
0.060688
0.002613
0.084118
0.057204
0.074405
0.051018
0.012031
0.048599
0.035220
0.074681
0.011866
0.037511
0.039335
0.047019
0.071400
0.027814
0.058512
0.015036
0.086150
0.023699
0.002481
0.027637
0.050056
0.066141
0.020254
0.052876
0.033560
0.036726
0.033111
0.053263
0.035921
0.050458
0.085695
0.046497
0.001940
0.042871
0.076390
0.045349
0.010112
0.041887
0.077589
0.009038
0.025320
0.061565
0.015611
0.071393
0.010870
0.075524
0.018251
0.068198
0.030328
0.056047
0.055486
0.001648
0.085759
0.051800
0.040809
0.045604
0.004181
0.001617
0.088696
0.084919
0.088019
0.015375
0.003219
0.071702
0.001272
0.085660
0.018370
0.067927
0.009109
0.078333
0.017707
0.068621
0.087265
0.039887
0.002268
0.035585
0.023288
0.063792
0.009670
0.076806
0.064451
0.018886
0.029178
0.057327
0.033405
0.067756
0.022109
0.027424
0.059023
0.061670
0.023723
0.006318
0.003969
0.009273
0.088529
0.001136
0.081012
0.077121
0.085954
0.047071
0.039335
0.053374
0.024934
0.061446
0.034664
0.051699
0.079587
0.007131
0.036239
0.018915
0.067518
0.019998
0.066432
0.023936
0.062446
0.013864
0.072645
0.032672
0.065927
0.001265
0.062212
0.086047
0.005435
0.007479
0.079277
0.078932
0.072377
0.014034
0.041956
0.044423
0.013160
0.073602
0.015699
0.070733
0.023081
0.063304
0.080866
0.056457
0.005664
0.053197
0.055773
0.043515
0.042841
0.025636
0.060791
0.013898
0.072520
0.011786
0.081720
0.005251
0.028353
0.087591
0.051030
0.002121
0.047214
0.074955
0.007920
0.078450
0.081332
0.046151
0.005316
0.042812
0.026831
0.070267
0.016142
0.039164
0.047227
0.030583
0.088375
0.020186
0.003313
0.023803
0.048236
0.081256
0.014344
0.072040
0.055374
0.031033
0.037725
0.039255
0.047128
0.088448
0.027934
0.003150
0.031695
0.032834
0.048512
0.053777
0.007650
0.082825
0.010280
0.076117
0.004850
0.017596
0.068838
0.024011
0.062414
0.010220
0.004610
0.013569
0.089868
0.076782
0.001221
0.072809
0.086571
0.057995
0.060971
0.026531
0.037287
0.045777
0.038014
0.040771
0.047130
0.039246
0.029348
0.032998
0.057031
0.053375
0.048439
0.033580
0.032279
0.054103
0.066479
0.062622
0.019993
0.023815
0.056582
0.054501
0.031913
0.088115
0.062037
0.002237
0.058133
0.015728
0.070745
0.060835
0.079865
0.006617
0.083411
0.017186
0.069126
0.076825
0.009734
0.040653
0.088222
0.032390
0.002890
0.036413
0.077842
0.049547
0.008654
0.046259
0.077254
0.053914
0.009208
0.050909
0.022034
0.014349
0.030229
0.056079
0.035607
0.050774
0.072393
0.005532
0.080869
0.038102
0.081638
0.005239
0.032053
0.043478
0.003046
0.088656
0.039557
0.074692
0.028183
0.058147
0.064070
0.005025
0.081482
0.014049
0.003546
0.004929
0.004940
0.089922
0.000793
0.085348
0.081484
0.086554
0.034566
0.026405
0.013149
0.003264
0.061664
0.027069
0.059306
0.072483
0.037272
0.049100
0.060994
0.073192
0.013250
0.044607
0.024758
0.041194
0.083860
0.038310
0.064339
0.022784
0.032909
0.053490
0.041810
0.044560
0.018352
0.068679
0.089819
0.024069
0.004283
0.027933
0.076233
0.034408
0.030127
0.010414
0.047412
0.003404
0.043475
0.089192
0.016504
0.069904
0.053038
0.073160
0.025050
0.061822
0.006396
0.011892
0.036481
0.049909
0.069694
0.015937
0.016533
0.070511
0.030946
0.055427
0.019558
0.067526
0.011544
0.074867
0.023332
0.063054
0.050469
0.035928
0.007463
0.079073
0.021746
0.064721
0.082948
0.004283
0.024638
0.039930
0.058650
0.002349
0.054740
0.088212
0.006184
0.001265
0.091403
0.087400
0.017118
0.069306
0.055578
0.030840
0.027042
0.059326
0.037060
0.049190
0.059272
0.027186
0.030715
0.084613
0.030762
0.002924
0.003342
0.004417
0.080413
0.082734
0.020136
0.066265
0.047294
0.039081
0.019909
0.084605
0.042580
0.002610
0.038939
0.087582
0.088041
0.005865
0.006114
0.042799
0.018982
0.067939
0.072837
0.077735
0.082634
0.014098
0.009238
0.004498
0.001263
0.023873
0.038556
0.028766
0.033660
0.053246
0.048349
0.063042
0.058144
